   * xtb version 6.6.0 (conda-forge) compiled by 'runner@Mac-1676020848589.local' on 2023-02-10
          program call               : xtb input_molecule.xyz --gfn2 --chrg 0 --opt

   ID    Z sym.   atoms
    1    6 C      1-6
    2    1 H      7-12

          :  Hamiltonian                  GFN2-xTB          :
 * total energy  :   -15.8783873 Eh     change       -0.3254783E-09 Eh
 * total energy  :   -15.8796245 Eh     change       -0.1237273E-02 Eh
 * total energy  :   -15.8796406 Eh     change       -0.1602936E-04 Eh
 * total energy  :   -15.8796407 Eh     change       -0.7852964E-07 Eh
   *** GEOMETRY OPTIMIZATION CONVERGED AFTER 4 ITERATIONS ***

 final structure:
================
12
 xtb: 6.6.0 (conda-forge)
C            0.79818058534915       -1.13129830422946        0.01474563112237
C            1.37890683257962        0.12552914107370       -0.00211466350134
C            0.58072622737143        1.25682645405269       -0.01686860576283
C           -0.79818056185260        1.13129824485497       -0.01475246971705
C           -1.37890681979767       -0.12552911898493        0.00211070379423
C           -0.58072618985692       -1.25682666971665        0.01685300811758
H            1.42104047451774       -2.01411124653462        0.02627321273008
H            2.45493963176068        0.22349342199234       -0.00374526880744
H            1.03389307668671        2.23759824264988       -0.03001091618091
H           -1.42104054270812        2.01411133249689       -0.02626406049100
H           -2.45493957504767       -0.22349347624801        0.00375312390984
H           -1.03389313900235       -2.23759802140680        0.03002030478646

          :  Hamiltonian                  GFN2-xTB          :
         :: total energy             -15.879640652460 Eh    ::
         :: gradient norm              0.000045517861 Eh/a0 ::
         :: HOMO-LUMO gap              4.934095950017 eV    ::
         :: SCC energy               -16.196505317139 Eh    ::
         :: -> dispersion             -0.008019481530 Eh    ::
         :: repulsion energy           0.316857880063 Eh    ::

    * Orbital Energies and Occupations

         #    Occupation            Energy/Eh            Energy/eV
      -------------------------------------------------------------
         1        2.0000           -0.6416529             -17.4603
       ...           ...                  ...                  ...
         3        2.0000           -0.6114898             -16.6395
         4        2.0000           -0.5690000             -15.4833
         5        2.0000           -0.5689999             -15.4833
         6        2.0000           -0.5311797             -14.4541
         7        2.0000           -0.4950011             -13.4697
         8        2.0000           -0.4894015             -13.3173
         9        2.0000           -0.4763494             -12.9621
        10        2.0000           -0.4763491             -12.9621
        11        2.0000           -0.4747523             -12.9187
        12        2.0000           -0.4213980             -11.4668
        13        2.0000           -0.4213978             -11.4668
        14        2.0000           -0.4025243             -10.9532
        15        2.0000           -0.4025241             -10.9532 (HOMO)
        16                         -0.2211994              -6.0191 (LUMO)
        17                         -0.2211991              -6.0191
        18                         -0.0899307              -2.4471
        19                          0.1179763               3.2103
        20                          0.1376655               3.7461
        21                          0.1734440               4.7197
        22                          0.1734451               4.7197
        23                          0.2026639               5.5148
        24                          0.2026648               5.5148
        25                          0.4132003              11.2438
        26                          0.4132038              11.2438
       ...                                ...                  ...
        30                          0.6740587              18.3421
      -------------------------------------------------------------
                  HL-Gap            0.1813247 Eh            4.9341 eV

     #   Z          covCN         q      C6AA      α(0)
     1   6 C        2.920    -0.029    28.718     8.788
     2   6 C        2.920    -0.029    28.718     8.788
     3   6 C        2.920    -0.029    28.718     8.788
     4   6 C        2.920    -0.029    28.718     8.788
     5   6 C        2.920    -0.029    28.718     8.788
     6   6 C        2.920    -0.029    28.718     8.788
     7   1 H        0.926     0.029     2.604     2.524
     8   1 H        0.926     0.029     2.604     2.524
     9   1 H        0.926     0.029     2.605     2.524
    10   1 H        0.926     0.029     2.604     2.524
    11   1 H        0.926     0.029     2.604     2.524
    12   1 H        0.926     0.029     2.605     2.524

Wiberg/Mayer (AO) data.
largest (>0.10) Wiberg bond orders for each atom

     #   Z sym  total        # sym  WBO       # sym  WBO       # sym  WBO
 ---------------------------------------------------------------------------
     1   6 C    3.993 --     2 C    1.441     6 C    1.441     7 H    0.972
                             4 C    0.114
     2   6 C    3.993 --     1 C    1.441     3 C    1.441     8 H    0.972
                             5 C    0.114
     3   6 C    3.993 --     2 C    1.441     4 C    1.441     9 H    0.972
                             6 C    0.114
     4   6 C    3.993 --     5 C    1.441     3 C    1.441    10 H    0.972
                             1 C    0.114
     5   6 C    3.993 --     4 C    1.441     6 C    1.441    11 H    0.972
                             2 C    0.114
     6   6 C    3.993 --     5 C    1.441     1 C    1.441    12 H    0.972
                             3 C    0.114
     7   1 H    0.999 --     1 C    0.972
     8   1 H    0.999 --     2 C    0.972
     9   1 H    0.999 --     3 C    0.972
    10   1 H    0.999 --     4 C    0.972
    11   1 H    0.999 --     5 C    0.972
    12   1 H    0.999 --     6 C    0.972
 ---------------------------------------------------------------------------

molecular dipole:
                 x           y           z       tot (Debye)
 q only:        0.000       0.000       0.000
   full:        0.000       0.000       0.000       0.000

           -------------------------------------------------
          | TOTAL ENERGY              -15.879640652460 Eh   |
          | GRADIENT NORM               0.000045517861 Eh/α |
          | HOMO-LUMO GAP               4.934095950017 eV   |
           -------------------------------------------------

 * finished run on 2024/09/19 at 14:55:38.449
