   * xtb version 6.6.0 (conda-forge) compiled by 'runner@Mac-1676020848589.local' on 2023-02-10
          program call               : xtb input_molecule.xyz --gfn2 --chrg 0 --opt

   ID    Z sym.   atoms
    1    6 C      1-6
    2    1 H      7-12

          :  Hamiltonian                  GFN2-xTB          :
 * total energy  :   -15.8783905 Eh     change       -0.3296279E-09 Eh
 * total energy  :   -15.8796246 Eh     change       -0.1234112E-02 Eh
 * total energy  :   -15.8796406 Eh     change       -0.1596005E-04 Eh
 * total energy  :   -15.8796407 Eh     change       -0.7763297E-07 Eh
   *** GEOMETRY OPTIMIZATION CONVERGED AFTER 4 ITERATIONS ***

 final structure:
================
12
 xtb: 6.6.0 (conda-forge)
C            0.48909699141881       -1.29534756635285       -0.00027972423828
C            1.36627475447021       -0.22413168717076       -0.01428589126523
C            0.87717720114218        1.07121769812518       -0.01400354045012
C           -0.48909699142112        1.29534756635201        0.00027972423831
C           -1.36627475446981        0.22413168717319        0.01428589126522
C           -0.87717720113983       -1.07121769812705        0.01400354045010
H            0.87076170234426       -2.30617862213011       -0.00048504129805
H            2.43245093983326       -0.39903005703474       -0.02543442584042
H            1.56168500802126        1.90714460613284       -0.02494200989256
H           -0.87076170233894        2.30617862213201        0.00048504129797
H           -2.43245093983417        0.39903005702926        0.02543442584046
H           -1.56168500802610       -1.90714460612899        0.02494200989259

          :  Hamiltonian                  GFN2-xTB          :
         :: total energy             -15.879640652565 Eh    ::
         :: gradient norm              0.000045219245 Eh/a0 ::
         :: HOMO-LUMO gap              4.934091939366 eV    ::
         :: SCC energy               -16.196505709998 Eh    ::
         :: -> dispersion             -0.008019482106 Eh    ::
         :: repulsion energy           0.316858272821 Eh    ::

    * Orbital Energies and Occupations

         #    Occupation            Energy/Eh            Energy/eV
      -------------------------------------------------------------
         1        2.0000           -0.6416529             -17.4603
       ...           ...                  ...                  ...
         3        2.0000           -0.6114898             -16.6395
         4        2.0000           -0.5690000             -15.4833
         5        2.0000           -0.5689999             -15.4833
         6        2.0000           -0.5311797             -14.4541
         7        2.0000           -0.4950011             -13.4697
         8        2.0000           -0.4894015             -13.3173
         9        2.0000           -0.4763494             -12.9621
        10        2.0000           -0.4763492             -12.9621
        11        2.0000           -0.4747524             -12.9187
        12        2.0000           -0.4213982             -11.4668
        13        2.0000           -0.4213976             -11.4668
        14        2.0000           -0.4025244             -10.9532
        15        2.0000           -0.4025241             -10.9532 (HOMO)
        16                         -0.2211996              -6.0191 (LUMO)
        17                         -0.2211989              -6.0191
        18                         -0.0899306              -2.4471
        19                          0.1179765               3.2103
        20                          0.1376659               3.7461
        21                          0.1734436               4.7196
        22                          0.1734460               4.7197
        23                          0.2026642               5.5148
        24                          0.2026651               5.5148
        25                          0.4132013              11.2438
        26                          0.4132036              11.2438
       ...                                ...                  ...
        30                          0.6740593              18.3421
      -------------------------------------------------------------
                  HL-Gap            0.1813245 Eh            4.9341 eV

     #   Z          covCN         q      C6AA      α(0)
     1   6 C        2.920    -0.029    28.718     8.788
     2   6 C        2.920    -0.029    28.718     8.788
     3   6 C        2.920    -0.029    28.718     8.788
     4   6 C        2.920    -0.029    28.718     8.788
     5   6 C        2.920    -0.029    28.718     8.788
     6   6 C        2.920    -0.029    28.718     8.788
     7   1 H        0.926     0.029     2.605     2.524
     8   1 H        0.926     0.029     2.604     2.524
     9   1 H        0.926     0.029     2.604     2.524
    10   1 H        0.926     0.029     2.605     2.524
    11   1 H        0.926     0.029     2.604     2.524
    12   1 H        0.926     0.029     2.604     2.524

Wiberg/Mayer (AO) data.
largest (>0.10) Wiberg bond orders for each atom

     #   Z sym  total        # sym  WBO       # sym  WBO       # sym  WBO
 ---------------------------------------------------------------------------
     1   6 C    3.993 --     2 C    1.441     6 C    1.441     7 H    0.972
                             4 C    0.114
     2   6 C    3.993 --     1 C    1.441     3 C    1.441     8 H    0.972
                             5 C    0.114
     3   6 C    3.993 --     4 C    1.441     2 C    1.441     9 H    0.972
                             6 C    0.114
     4   6 C    3.993 --     5 C    1.441     3 C    1.441    10 H    0.972
                             1 C    0.114
     5   6 C    3.993 --     4 C    1.441     6 C    1.441    11 H    0.972
                             2 C    0.114
     6   6 C    3.993 --     1 C    1.441     5 C    1.441    12 H    0.972
                             3 C    0.114
     7   1 H    0.999 --     1 C    0.972
     8   1 H    0.999 --     2 C    0.972
     9   1 H    0.999 --     3 C    0.972
    10   1 H    0.999 --     4 C    0.972
    11   1 H    0.999 --     5 C    0.972
    12   1 H    0.999 --     6 C    0.972
 ---------------------------------------------------------------------------

molecular dipole:
                 x           y           z       tot (Debye)
 q only:        0.000      -0.000      -0.000
   full:        0.000      -0.000      -0.000       0.000

           -------------------------------------------------
          | TOTAL ENERGY              -15.879640652565 Eh   |
          | GRADIENT NORM               0.000045219245 Eh/α |
          | HOMO-LUMO GAP               4.934091939366 eV   |
           -------------------------------------------------

 * finished run on 2024/09/19 at 14:52:47.527
