 Gaussian 16, Revision C.02,
 Gaussian 16:  ES64L-G16RevC.02  7-Dec-2021

 ----------------------------------------------------------------------
 # hf geom=allcheck guess=read chkbasis IRC=(readcartesian,recorrect=ne
 ver)
 ----------------------------------------------------------------------

 Structure from the checkpoint file:  "example1_IRC.chk"
 -------------------
 Title Card Required
 -------------------
 Charge = -1 Multiplicity = 1

 SCF Done:  E(RHF) =  -3056.80555165     A.U. after   10 cycles
 SCF Done:  E(RHF) =  -3056.80634058     A.U. after    9 cycles
 SCF Done:  E(RHF) =  -3056.80766222     A.U. after   10 cycles
 SCF Done:  E(RHF) =  -3056.80943020     A.U. after   10 cycles
 SCF Done:  E(RHF) =  -3056.81151215     A.U. after   10 cycles
 SCF Done:  E(RHF) =  -3056.81373432     A.U. after   10 cycles
 SCF Done:  E(RHF) =  -3056.81590662     A.U. after    9 cycles
 SCF Done:  E(RHF) =  -3056.81781215     A.U. after    9 cycles
 SCF Done:  E(RHF) =  -3056.81922280     A.U. after    9 cycles
 SCF Done:  E(RHF) =  -3056.81983689     A.U. after    9 cycles
 SCF Done:  E(RHF) =  -3056.80553832     A.U. after   12 cycles
 SCF Done:  E(RHF) =  -3056.80613296     A.U. after   10 cycles
 SCF Done:  E(RHF) =  -3056.80691763     A.U. after   10 cycles
 SCF Done:  E(RHF) =  -3056.80768826     A.U. after   10 cycles
 SCF Done:  E(RHF) =  -3056.80828374     A.U. after   10 cycles
 SCF Done:  E(RHF) =  -3056.80869596     A.U. after    9 cycles
 SCF Done:  E(RHF) =  -3056.80899635     A.U. after    9 cycles
 SCF Done:  E(RHF) =  -3056.80920763     A.U. after    9 cycles
 SCF Done:  E(RHF) =  -3056.80919568     A.U. after    9 cycles

                          Input orientation:
 ---------------------------------------------------------------------
 Center     Atomic      Atomic             Coordinates (Angstroms)
 Number     Number       Type             X           Y           Z
 ---------------------------------------------------------------------
      1          6           0        0.185805   -0.555525    1.190332
      2          1           0       -0.590885    0.143039    1.377468
      3          1           0       -0.085572   -1.384421    0.585730
      4          1           0        1.135796   -0.132064    0.979686
      5         17           0        0.467460   -1.397559    2.994586
      6         35           0       -0.239818    0.716983   -1.536297
 ---------------------------------------------------------------------

 Alpha  occ. eigenvalues -- -486.43952-103.93177 -64.45310 -57.63884 -57.63860
 Alpha  occ. eigenvalues --  -57.63860 -11.10788 -10.32434  -9.44626  -7.78801
 Alpha  occ. eigenvalues --   -7.78489  -7.78489  -7.02168  -7.02077  -7.02077
 Alpha  occ. eigenvalues --   -2.74958  -2.74923  -2.74923  -2.74823  -2.74823
 Alpha  occ. eigenvalues --   -0.94356  -0.79160  -0.66538  -0.48746  -0.48744
 Alpha  occ. eigenvalues --   -0.34396  -0.29390  -0.29390  -0.12431  -0.12431
 Alpha  occ. eigenvalues --   -0.12246
 Alpha virt. eigenvalues --    0.29819   0.42444   0.47299   0.47300   0.86864
 Alpha virt. eigenvalues --    0.94353   0.94354   0.98936   1.05163   1.06115
 Alpha virt. eigenvalues --    1.06117   1.10921   1.13965   1.13965   1.41572

 Mulliken charges:
               1
     1  C   -0.545273
     2  H    0.280860
     3  H    0.280860
     4  H    0.280865
     5  Cl  -0.376461
     6  Br  -0.920851
 Sum of Mulliken charges =  -1.00000

 Dipole moment (field-independent basis, Debye):
    X=              0.2813    Y=             -0.8411    Z=              1.8022  Tot=              2.0085
 Quadrupole moment (field-independent basis, Debye-Ang):
   XX=            -42.2230   YY=            -48.0843   ZZ=            -71.7845
   XY=              2.2074   XZ=             -4.7297   YZ=             14.1408

  Exact polarizability:       0.000       0.000       0.000       0.000       0.000       0.000
 Approx polarizability:      12.360      -1.775      17.073       3.804     -11.371      36.132

 Normal termination of Gaussian 16 at Wed Aug 28 11:28:35 2024.
