   * xtb version 6.6.0 (conda-forge) compiled by 'runner@Mac-1676020848589.local' on 2023-02-10
          program call               : xtb fexofenadine.xyz --opt --gfn2

   ID    Z sym.   atoms
    1    6 C      1-13, 15-32, 35
    2    7 N      14
    3    8 O      33, 34, 36, 37
    4    1 H      38-76

          :  Hamiltonian                  GFN2-xTB          :
 * total energy  :  -107.5709769 Eh     change       -0.1219192E-08 Eh
 * total energy  :  -107.5973422 Eh     change       -0.2636537E-01 Eh
 * total energy  :  -107.6036931 Eh     change       -0.6350910E-02 Eh
 * total energy  :  -107.6049837 Eh     change       -0.1290587E-02 Eh
 * total energy  :  -107.6056788 Eh     change       -0.6950861E-03 Eh
 * total energy  :  -107.6060468 Eh     change       -0.3679588E-03 Eh
 * total energy  :  -107.6064247 Eh     change       -0.3779716E-03 Eh
 * total energy  :  -107.6067380 Eh     change       -0.3132773E-03 Eh
 * total energy  :  -107.6069070 Eh     change       -0.1690286E-03 Eh
 * total energy  :  -107.6069968 Eh     change       -0.8978316E-04 Eh
 * total energy  :  -107.6127099 Eh     change       -0.1357180E-04 Eh
 * total energy  :  -107.6127196 Eh     change       -0.9772526E-05 Eh
 * total energy  :  -107.6127296 Eh     change       -0.9988455E-05 Eh
 * total energy  :  -107.6127437 Eh     change       -0.1409113E-04 Eh
 * total energy  :  -107.6127591 Eh     change       -0.1534421E-04 Eh
 * total energy  :  -107.6127736 Eh     change       -0.1457891E-04 Eh
 * total energy  :  -107.6127831 Eh     change       -0.9421689E-05 Eh
 * total energy  :  -107.6127909 Eh     change       -0.7846426E-05 Eh
 * total energy  :  -107.6127953 Eh     change       -0.4353813E-05 Eh
   *** GEOMETRY OPTIMIZATION CONVERGED AFTER 124 ITERATIONS ***

 final structure:
================
76
 xtb: 6.6.0 (conda-forge)
C            8.46689528326537       -0.98860256158414       -0.75409438958899
C            7.58644229842006       -0.28019782222749        0.28156998620390
C            7.71135842517003        1.23837567651666        0.11761988760750
C            6.12231104054925       -0.67682592274347        0.21184318187202
C            5.56864851742472       -1.35442804797146       -0.86582686811398
C            4.22247692195241       -1.66832351491286       -0.88495096380662
C            3.38811787085828       -1.31456869726698        0.16741447229004
C            3.94180409891196       -0.64687315257588        1.24989221252217
C            5.28767883375990       -0.33259145325757        1.26953013245401
C            1.91203928944570       -1.64826510429749        0.09401071234561
C            1.23432309181056       -0.83468976632050       -1.02502391900040
C            1.51231536764775        0.66565013667084       -0.93558104623636
C            0.53282868619388        1.44121392419380       -1.82104578886977
N           -0.83567492490634        1.16795048612341       -1.43060775003665
C           -1.78650894619430        1.29088127539326       -2.52149560250766
C           -3.21817267352876        1.11270720041846       -1.99914697842729
C           -3.17217020574537        0.31103263472899       -0.69673713184093
C           -2.49673257235612        1.19484770842212        0.35483197206976
C           -1.29494925614309        1.91775922634761       -0.27875763735335
C           -4.57460309754677       -0.22135267326435       -0.29342552992263
C           -5.50621963888150        0.93984459797605        0.00046829613577
C           -6.30487355145522        1.47141609721280       -1.00250747707137
C           -7.13094315008445        2.55156317288866       -0.74539852071893
C           -7.16639666301707        3.11717703863665        0.51687087527095
C           -6.37907190004218        2.58704552245950        1.52502593622826
C           -5.55688372701947        1.50408613084127        1.27105308369703
C           -4.54843407848217       -1.19273557836858        0.88391927436467
C           -5.77563653832669       -1.55575888880226        1.43497970104536
C           -5.85150556730351       -2.48162016369775        2.45740428516905
C           -4.69778418210359       -3.07174278277974        2.94636908533518
C           -3.47712278800271       -2.73995564828411        2.38880441898774
C           -3.40185822032209       -1.81573947059567        1.35872685477673
O           -5.12086117727970       -0.93603590979780       -1.40457885221374
O            1.23615299054781       -1.48894059547472        1.31943595457747
C            8.09847314875680       -0.68610565407086        1.65918330955600
O            8.54016756192823        0.05673448997297        2.49342868846832
O            8.00887998339023       -2.00749273656851        1.85333050501668
H            8.34481411222609       -2.06665363161144       -0.68803317914755
H            9.51190003740296       -0.74525938990219       -0.57035289688476
H            8.21404333379641       -0.65440220246097       -1.75718324010983
H            7.33067155831916        1.53686736791641       -0.85621635132893
H            8.75267200032546        1.53903091987313        0.20170584129630
H            7.14629681175592        1.75474255756131        0.88864757317218
H            6.18109909000126       -1.64846091111312       -1.70295529228883
H            3.81546349586632       -2.20315390521283       -1.73106762319280
H            3.32418688070156       -0.38528238622267        2.09656542810542
H            5.69583378742447        0.18668330664382        2.12532321653909
H            1.80886700936193       -2.71653611439258       -0.13603106511626
H            0.15623049393582       -0.98732088967566       -0.95096254901989
H            1.56531486805228       -1.20628485668765       -1.99496838744241
H            1.41089558617034        1.00834775259760        0.09685440628707
H            2.53487120019747        0.88173107781832       -1.25049058093332
H            0.76772749718200        2.51906991827441       -1.78796649149313
H            0.66034167085713        1.10517986452429       -2.85334031006156
H           -1.54878113887429        0.50796219926558       -3.24889915191979
H           -1.69693489917321        2.26618284375741       -3.03315960182975
H           -3.68013652450287        2.08167870242292       -1.80365721772313
H           -3.82424597405887        0.59855135045154       -2.74439192689794
H           -2.53760626561216       -0.56105376239321       -0.88800031679015
H           -3.20426138285453        1.93703134626308        0.72430610705221
H           -2.17126300573077        0.59194544250596        1.20242783885109
H           -0.48473544364759        1.99664601595243        0.44704829680208
H           -1.57589773381691        2.94653429176739       -0.56643922715266
H           -6.28611565025484        1.02095503620024       -1.98155382930581
H           -7.74946860482061        2.95214248241417       -1.53553751748358
H           -7.80921435475635        3.96180896126267        0.71780432251602
H           -6.40764632904349        3.01568626035872        2.51646079863145
H           -4.96322779492354        1.08434375362925        2.07050807660024
H           -6.67677622186736       -1.10379715947419        1.04767981582729
H           -6.81354382200085       -2.74391560669152        2.87268018394521
H           -4.75202411866843       -3.79155314997837        3.74974259054600
H           -2.57065384876230       -3.20355713557229        2.74957721534125
H           -2.43168916458118       -1.59972603665241        0.94037026398769
H           -4.57402425188079       -1.71548609100125       -1.55233563879373
H            1.12508271339061       -0.54530651165335        1.48168527103032
H            8.33712383147736       -2.24141088473496        2.73582077813062

          :  Hamiltonian                  GFN2-xTB          :
         :: total energy            -107.612795253052 Eh    ::
         :: gradient norm              0.000544263224 Eh/a0 ::
         :: HOMO-LUMO gap              3.034988803132 eV    ::
         :: SCC energy              -109.200534720556 Eh    ::
         :: -> dispersion             -0.088666187298 Eh    ::
         :: repulsion energy           1.586345096571 Eh    ::

    * Orbital Energies and Occupations

         #    Occupation            Energy/Eh            Energy/eV
      -------------------------------------------------------------
         1        2.0000           -0.7449928             -20.2723
       ...           ...                  ...                  ...
        86        2.0000           -0.4195138             -11.4156
        87        2.0000           -0.4166113             -11.3366
        88        2.0000           -0.4139233             -11.2634
        89        2.0000           -0.4076984             -11.0940
        90        2.0000           -0.4067533             -11.0683
        91        2.0000           -0.4067043             -11.0670
        92        2.0000           -0.4039511             -10.9921
        93        2.0000           -0.4023115             -10.9475
        94        2.0000           -0.3988904             -10.8544
        95        2.0000           -0.3944272             -10.7329
        96        2.0000           -0.3918985             -10.6641
        97        2.0000           -0.3891486             -10.5893
        98        2.0000           -0.3475017              -9.4560 (HOMO)
        99                         -0.2359679              -6.4210 (LUMO)
       100                         -0.2263760              -6.1600
       101                         -0.2236230              -6.0851
       102                         -0.2215913              -6.0298
       103                         -0.2215867              -6.0297
       104                         -0.2196437              -5.9768
       105                         -0.2162862              -5.8854
       106                         -0.0989385              -2.6923
       107                         -0.0944052              -2.5689
       108                         -0.0901085              -2.4520
       109                          0.0147782               0.4021
       ...                                ...                  ...
       187                          0.6707399              18.2518
      -------------------------------------------------------------
                  HL-Gap            0.1115338 Eh            3.0350 eV

     #   Z          covCN         q      C6AA      α(0)
     1   6 C        3.761    -0.106    22.576     6.773
     2   6 C        3.906     0.000    20.519     6.439
     3   6 C        3.761    -0.106    22.581     6.774
     4   6 C        2.979     0.010    27.790     8.647
     5   6 C        2.922    -0.036    28.904     8.816
     6   6 C        2.925    -0.040    28.989     8.830
     7   6 C        2.969    -0.006    28.158     8.704
     8   6 C        2.923    -0.033    28.830     8.805
     9   6 C        2.926    -0.038    28.942     8.823
    10   6 C        3.730     0.109    18.881     6.203
    11   6 C        3.804    -0.077    21.964     6.672
    12   6 C        3.802    -0.057    21.597     6.616
    13   6 C        3.753     0.011    20.444     6.447
    14   7 N        2.731    -0.181    24.908     7.412
    15   6 C        3.765     0.014    20.379     6.434
    16   6 C        3.809    -0.060    21.653     6.624
    17   6 C        3.858    -0.026    21.003     6.518
    18   6 C        3.808    -0.066    21.751     6.639
    19   6 C        3.763     0.017    20.334     6.428
    20   6 C        3.784     0.129    18.500     6.127
    21   6 C        2.974     0.009    27.803     8.649
    22   6 C        2.924    -0.029    28.725     8.789
    23   6 C        2.920    -0.031    28.779     8.797
    24   6 C        2.919    -0.032    28.808     8.802
    25   6 C        2.920    -0.032    28.788     8.799
    26   6 C        2.923    -0.038    28.934     8.821
    27   6 C        2.970    -0.007    28.198     8.710
    28   6 C        2.927    -0.029    28.726     8.790
    29   6 C        2.919    -0.030    28.749     8.793
    30   6 C        2.919    -0.031    28.775     8.797
    31   6 C        2.920    -0.031    28.780     8.797
    32   6 C        2.922    -0.042    29.033     8.836
    33   8 O        1.655    -0.446    21.760     6.297
    34   8 O        1.656    -0.445    21.739     6.294
    35   6 C        2.705     0.362    20.855     7.475
    36   8 O        0.856    -0.409    21.866     6.269
    37   8 O        1.659    -0.377    20.406     6.098
    38   1 H        0.925     0.054     2.270     2.356
    39   1 H        0.925     0.042     2.425     2.435
    40   1 H        0.925     0.049     2.329     2.386
    41   1 H        0.925     0.042     2.419     2.432
    42   1 H        0.925     0.053     2.286     2.365
    43   1 H        0.925     0.051     2.303     2.373
    44   1 H        0.926     0.040     2.449     2.447
    45   1 H        0.926     0.030     2.592     2.518
    46   1 H        0.926     0.039     2.462     2.454
    47   1 H        0.926     0.031     2.572     2.508
    48   1 H        0.924     0.046     2.375     2.410
    49   1 H        0.924     0.063     2.166     2.302
    50   1 H        0.925     0.035     2.512     2.478
    51   1 H        0.924     0.028     2.611     2.527
    52   1 H        0.924     0.032     2.558     2.501
    53   1 H        0.923     0.007     2.944     2.683
    54   1 H        0.924     0.033     2.549     2.497
    55   1 H        0.924     0.028     2.619     2.531
    56   1 H        0.922     0.003     2.999     2.708
    57   1 H        0.924     0.034     2.528     2.487
    58   1 H        0.925     0.047     2.353     2.399
    59   1 H        0.924     0.041     2.432     2.439
    60   1 H        0.925     0.036     2.501     2.473
    61   1 H        0.925     0.035     2.511     2.478
    62   1 H        0.924     0.028     2.621     2.532
    63   1 H        0.923     0.006     2.955     2.688
    64   1 H        0.926     0.053     2.281     2.362
    65   1 H        0.926     0.030     2.579     2.511
    66   1 H        0.926     0.029     2.601     2.522
    67   1 H        0.926     0.029     2.606     2.524
    68   1 H        0.926     0.028     2.613     2.528
    69   1 H        0.926     0.038     2.477     2.461
    70   1 H        0.926     0.031     2.574     2.509
    71   1 H        0.926     0.030     2.580     2.512
    72   1 H        0.926     0.035     2.516     2.480
    73   1 H        0.926     0.038     2.470     2.458
    74   1 H        0.805     0.285     0.768     1.377
    75   1 H        0.805     0.290     0.752     1.362
    76   1 H        0.804     0.328     0.642     1.259

Wiberg/Mayer (AO) data.
largest (>0.10) Wiberg bond orders for each atom

     #   Z sym  total        # sym  WBO       # sym  WBO       # sym  WBO
 ---------------------------------------------------------------------------
     1   6 C    3.993 --    39 H    0.985    38 H    0.984     2 C    0.982
                            40 H    0.981
     2   6 C    3.989 --     3 C    0.986     1 C    0.982     4 C    0.970
                            35 C    0.936
     3   6 C    3.993 --    41 H    0.986     2 C    0.986    43 H    0.984
                            42 H    0.983
     4   6 C    3.986 --     5 C    1.410     9 C    1.410     2 C    0.970
                             7 C    0.106
     5   6 C    3.992 --     6 C    1.451     4 C    1.410    44 H    0.966
                             8 C    0.106
     6   6 C    3.991 --     5 C    1.451     7 C    1.406    45 H    0.969
                             9 C    0.111
     7   6 C    3.986 --     8 C    1.414     6 C    1.406    10 C    0.984
                             4 C    0.106
     8   6 C    3.992 --     9 C    1.447     7 C    1.414    46 H    0.966
                             5 C    0.106
     9   6 C    3.992 --     8 C    1.447     4 C    1.410    47 H    0.967
                             6 C    0.111
    10   6 C    3.956 --    34 O    0.996     7 C    0.984    11 C    0.971
                            48 H    0.953
    11   6 C    3.993 --    12 C    1.009    50 H    0.977    10 C    0.971
                            49 H    0.968
    12   6 C    3.998 --    11 C    1.009    13 C    0.999    52 H    0.977
                            51 H    0.967
    13   6 C    3.989 --    14 N    1.006    12 C    0.999    54 H    0.973
                            53 H    0.965
    14   7 N    3.130 --    19 C    1.006    13 C    1.006    15 C    1.002
    15   6 C    3.987 --    14 N    1.002    16 C    0.999    55 H    0.975
                            56 H    0.967
    16   6 C    3.995 --    15 C    0.999    17 C    0.998    57 H    0.978
                            58 H    0.974
    17   6 C    3.993 --    18 C    0.999    16 C    0.998    59 H    0.958
                            20 C    0.947
    18   6 C    3.996 --    17 C    0.999    19 C    0.994    61 H    0.976
                            60 H    0.971
    19   6 C    3.989 --    14 N    1.006    18 C    0.994    62 H    0.973
                            63 H    0.967
    20   6 C    3.946 --    21 C    0.978    27 C    0.966    33 O    0.962
                            17 C    0.947
    21   6 C    3.987 --    22 C    1.417    26 C    1.405    20 C    0.978
                            24 C    0.110
    22   6 C    3.990 --    23 C    1.440    21 C    1.417    64 H    0.966
                            25 C    0.110
    23   6 C    3.992 --    24 C    1.442    22 C    1.440    65 H    0.971
                            26 C    0.111
    24   6 C    3.992 --    23 C    1.442    25 C    1.435    66 H    0.971
                            21 C    0.110
    25   6 C    3.992 --    26 C    1.447    24 C    1.435    67 H    0.971
                            22 C    0.110
    26   6 C    3.992 --    25 C    1.447    21 C    1.405    68 H    0.967
                            23 C    0.111
    27   6 C    3.986 --    32 C    1.425    28 C    1.405    20 C    0.966
                            30 C    0.111
    28   6 C    3.992 --    29 C    1.454    27 C    1.405    69 H    0.968
                            31 C    0.113
    29   6 C    3.992 --    28 C    1.454    30 C    1.431    70 H    0.971
                            32 C    0.109
    30   6 C    3.992 --    31 C    1.447    29 C    1.431    71 H    0.971
                            27 C    0.111
    31   6 C    3.992 --    30 C    1.447    32 C    1.434    72 H    0.971
                            28 C    0.113
    32   6 C    3.991 --    31 C    1.434    27 C    1.425    73 H    0.962
                            29 C    0.109
    33   8 O    1.968 --    20 C    0.962    74 H    0.900
    34   8 O    1.968 --    10 C    0.996    75 H    0.892
    35   6 C    3.904 --    36 O    1.771    37 O    1.132     2 C    0.936
    36   8 O    2.042 --    35 C    1.771    37 O    0.171
    37   8 O    2.199 --    35 C    1.132    76 H    0.867    36 O    0.171
    38   1 H    0.997 --     1 C    0.984
    39   1 H    0.998 --     1 C    0.985
    40   1 H    0.998 --     1 C    0.981
    41   1 H    0.998 --     3 C    0.986
    42   1 H    0.996 --     3 C    0.983
    43   1 H    0.997 --     3 C    0.984
    44   1 H    0.998 --     5 C    0.966
    45   1 H    0.999 --     6 C    0.969
    46   1 H    0.998 --     8 C    0.966
    47   1 H    0.999 --     9 C    0.967
    48   1 H    0.997 --    10 C    0.953
    49   1 H    0.995 --    11 C    0.968
    50   1 H    0.999 --    11 C    0.977
    51   1 H    0.999 --    12 C    0.967
    52   1 H    0.999 --    12 C    0.977
    53   1 H    1.000 --    13 C    0.965
    54   1 H    0.999 --    13 C    0.973
    55   1 H    0.999 --    15 C    0.975
    56   1 H    1.000 --    15 C    0.967
    57   1 H    0.999 --    16 C    0.978
    58   1 H    0.997 --    16 C    0.974
    59   1 H    0.997 --    17 C    0.958
    60   1 H    0.998 --    18 C    0.971
    61   1 H    0.999 --    18 C    0.976
    62   1 H    0.999 --    19 C    0.973
    63   1 H    1.000 --    19 C    0.967
    64   1 H    0.997 --    22 C    0.966
    65   1 H    0.999 --    23 C    0.971
    66   1 H    0.999 --    24 C    0.971
    67   1 H    0.999 --    25 C    0.971
    68   1 H    0.999 --    26 C    0.967
    69   1 H    0.999 --    28 C    0.968
    70   1 H    0.999 --    29 C    0.971
    71   1 H    0.998 --    30 C    0.971
    72   1 H    0.998 --    31 C    0.971
    73   1 H    0.998 --    32 C    0.962
    74   1 H    0.918 --    33 O    0.900
    75   1 H    0.916 --    34 O    0.892
    76   1 H    0.892 --    37 O    0.867
 ---------------------------------------------------------------------------

molecular dipole:
                 x           y           z       tot (Debye)
 q only:        0.107      -0.224      -0.737
   full:        0.408       0.037      -0.745       2.161

           -------------------------------------------------
          | TOTAL ENERGY             -107.612795253052 Eh   |
          | GRADIENT NORM               0.000544263224 Eh/α |
          | HOMO-LUMO GAP               3.034988803132 eV   |
           -------------------------------------------------

 * finished run on 2024/09/17 at 17:38:46.200
