   * xtb version 6.6.0 (conda-forge) compiled by 'runner@Mac-1676020848589.local' on 2023-02-10
          program call               : xtb theobromine.xyz --opt --alpb water

   ID    Z sym.   atoms
    1    6 C      1, 3, 5-7, 10, 13
    2    7 N      2, 4, 9, 12
    3    8 O      8, 11
    4    1 H      14-21

      * Solvation model:               ALPB
        Solvent                        water
        Solvent mass                       1.8000E+01 g/mol
          :  Hamiltonian                  GFN2-xTB          :
 * total energy  :   -38.9870131 Eh     change       -0.2115996E-10 Eh
 * total energy  :   -39.0009509 Eh     change       -0.1393785E-01 Eh
 * total energy  :   -39.0044585 Eh     change       -0.3507579E-02 Eh
 * total energy  :   -39.0048163 Eh     change       -0.3577747E-03 Eh
 * total energy  :   -39.0049448 Eh     change       -0.1285202E-03 Eh
 * total energy  :   -39.0049621 Eh     change       -0.1728516E-04 Eh
 * total energy  :   -39.0049711 Eh     change       -0.8995503E-05 Eh
 * total energy  :   -39.0049739 Eh     change       -0.2759167E-05 Eh
   *** GEOMETRY OPTIMIZATION CONVERGED AFTER 8 ITERATIONS ***

 final structure:
================
21
 xtb: 6.6.0 (conda-forge)
C           -3.14558150814773       -0.00816549026833       -0.02200967135050
N           -1.78833943276701       -0.47363044593086       -0.08629900853327
C           -1.35546602089157       -1.72651885805765       -0.27935274030083
N           -0.03934612017514       -1.83909926488974       -0.28956820323765
C            0.41074239633743       -0.58331906510686       -0.09117279702172
C           -0.66008016470006        0.30079788111741        0.04223652462211
C           -0.45993557747774        1.69359662013858        0.27040684740691
O           -1.30090198210115        2.57318679706342        0.40392402324537
N            0.89707768506825        1.98608977356586        0.33523749991519
C            1.98281721727148        1.14193280988232        0.20207702226581
O            3.12219414377963        1.57475993172095        0.28374478474673
N            1.71011746834287       -0.17968759423729       -0.01349458220867
C            2.79352557467496       -1.12995585123007       -0.17596839731118
H           -3.81767571113928       -0.85369748396569       -0.13918401752335
H           -3.32327831006980        0.48160746388702        0.93529719007947
H           -3.32367352128879        0.72291995649017       -0.81060432931236
H           -2.01215498818935       -2.56193334415021       -0.41372015550140
H            1.13725945038230        2.95900612411945        0.49802339383762
H            2.41868113555409       -2.11321270294931        0.09095312002372
H            3.61694418620391       -0.83167757812501        0.46968268916140
H            3.13687407933270       -1.13309967907415       -1.21010919300341

          :  Hamiltonian                  GFN2-xTB          :
         :: total energy             -39.004973859462 Eh    ::
         :: gradient norm              0.000831031057 Eh/a0 ::
         :: HOMO-LUMO gap              3.378955284279 eV    ::
         :: SCC energy               -39.472264996713 Eh    ::
         :: -> dispersion             -0.019989270107 Eh    ::
         :: -> Gsolv                  -0.024223851208 Eh    ::
         :: repulsion energy           0.467225166444 Eh    ::

    * Orbital Energies and Occupations

         #    Occupation            Energy/Eh            Energy/eV
      -------------------------------------------------------------
         1        2.0000           -0.7332077             -19.9516
       ...           ...                  ...                  ...
        22        2.0000           -0.5204080             -14.1610
        23        2.0000           -0.5073642             -13.8061
        24        2.0000           -0.5039420             -13.7130
        25        2.0000           -0.4986298             -13.5684
        26        2.0000           -0.4889906             -13.3061
        27        2.0000           -0.4754761             -12.9384
        28        2.0000           -0.4569095             -12.4331
        29        2.0000           -0.4496721             -12.2362
        30        2.0000           -0.4438089             -12.0767
        31        2.0000           -0.4357528             -11.8574
        32        2.0000           -0.4260179             -11.5925
        33        2.0000           -0.4090429             -11.1306
        34        2.0000           -0.3948341             -10.7440 (HOMO)
        35                         -0.2706598              -7.3650 (LUMO)
        36                         -0.2306495              -6.2763
        37                         -0.2071147              -5.6359
        38                         -0.1286291              -3.5002
        39                         -0.0382878              -1.0419
        40                          0.0079368               0.2160
        41                          0.0260410               0.7086
        42                          0.0874706               2.3802
        43                          0.1033184               2.8114
        44                          0.1373967               3.7388
        45                          0.1477435               4.0203
       ...                                ...                  ...
        60                          0.6764790              18.4079
      -------------------------------------------------------------
                  HL-Gap            0.1241743 Eh            3.3790 eV

     #   Z          covCN         q      C6AA      α(0)
     1   6 C        3.690    -0.081    22.245     6.750
     2   7 N        2.833     0.022    20.867     6.785
     3   6 C        3.205     0.084    25.560     8.234
     4   7 N        1.895    -0.297    28.538     7.920
     5   6 C        3.191     0.126    24.778     8.118
     6   6 C        3.127    -0.036    28.698     8.772
     7   6 C        2.755     0.279    22.279     7.729
     8   8 O        0.858    -0.502    23.823     6.544
     9   7 N        2.710    -0.214    25.651     7.522
    10   6 C        2.718     0.328    21.418     7.576
    11   8 O        0.859    -0.515    24.117     6.584
    12   7 N        2.741    -0.057    22.352     7.022
    13   6 C        3.700    -0.074    22.084     6.720
    14   1 H        0.925     0.102     1.765     2.078
    15   1 H        0.925     0.095     1.835     2.118
    16   1 H        0.925     0.095     1.835     2.118
    17   1 H        0.926     0.093     1.852     2.128
    18   1 H        0.860     0.256     0.859     1.452
    19   1 H        0.925     0.111     1.688     2.032
    20   1 H        0.925     0.094     1.844     2.124
    21   1 H        0.925     0.091     1.874     2.141

Wiberg/Mayer (AO) data.
largest (>0.10) Wiberg bond orders for each atom

     #   Z sym  total        # sym  WBO       # sym  WBO       # sym  WBO
 ---------------------------------------------------------------------------
     1   6 C    3.941 --     2 N    0.992    14 H    0.975    15 H    0.967
                            16 H    0.966
     2   7 N    3.671 --     3 C    1.327     6 C    1.158     1 C    0.992
     3   6 C    3.950 --     4 N    1.456     2 N    1.327    17 H    0.957
     4   7 N    3.003 --     3 C    1.456     5 C    1.303
     5   6 C    3.966 --     6 C    1.324     4 N    1.303    12 N    1.138
     6   6 C    3.943 --     5 C    1.324     2 N    1.158     7 C    1.133
     7   6 C    3.951 --     8 O    1.602     6 C    1.133     9 N    1.113
     8   8 O    1.942 --     7 C    1.602     9 N    0.139
     9   7 N    3.491 --    10 C    1.127     7 C    1.113    18 H    0.903
                             8 O    0.139    11 O    0.126
    10   6 C    3.959 --    11 O    1.576    12 N    1.167     9 N    1.127
    11   8 O    1.918 --    10 C    1.576    12 N    0.140     9 N    0.126
    12   7 N    3.587 --    10 C    1.167     5 C    1.138    13 C    0.971
                            11 O    0.140
    13   6 C    3.929 --    20 H    0.974    19 H    0.972    12 N    0.971
                            21 H    0.969
    14   1 H    0.989 --     1 C    0.975
    15   1 H    0.991 --     1 C    0.967
    16   1 H    0.991 --     1 C    0.966
    17   1 H    0.990 --     3 C    0.957
    18   1 H    0.934 --     9 N    0.903
    19   1 H    0.987 --    13 C    0.972
    20   1 H    0.990 --    13 C    0.974
    21   1 H    0.990 --    13 C    0.969
 ---------------------------------------------------------------------------

molecular dipole:
                 x           y           z       tot (Debye)
 q only:       -1.441      -2.166      -0.348
   full:       -1.650      -1.820      -0.309       6.294

           -------------------------------------------------
          | TOTAL ENERGY              -39.004973859462 Eh   |
          | GRADIENT NORM               0.000831031057 Eh/α |
          | HOMO-LUMO GAP               3.378955284279 eV   |
           -------------------------------------------------

 * finished run on 2024/09/17 at 17:37:03.153
