 ----------------------------------------------------------------------
 #p ub3lyp/6-311+G* scf=(novaracc,maxcycles=512) int=(acc2e=12,grid=ult
 rafine) opt freq
 ----------------------------------------------------------------------

 -------------------
 Title Card Required
 -------------------
 Symbolic Z-matrix:
 Charge = -1 Multiplicity = 3

 SCF Done:  E(UB3LYP) =  -156.487747569     A.U. after   20 cycles
 Optimization completed.
    -- Stationary point found.
 Normal termination of Gaussian DV at Wed Jun 19 17:50:49 2019.

 ----------------------------------------------------------------------
 #P Geom=AllCheck Guess=TCheck SCRF=Check GenChk UB3LYP/6-311+G(d) Freq
 ----------------------------------------------------------------------

 Structure from the checkpoint file:  "2-1-3-oso.chk"
 -------------------
 Title Card Required
 -------------------
 Charge = -1 Multiplicity = 3

 SCF Done:  E(UB3LYP) =  -156.487747569     A.U. after    1 cycles
                           ! Non-Optimized Parameters !
 Normal termination of Gaussian DV at Wed Jun 19 17:51:30 2019.

 ----------------------------------------------------------------------
 #p ub3lyp geom=allcheck guess=read chkbasis stable=opt scf=(novaracc,m
 axcycles=512) int=(acc2e=12,grid=ultrafine)
 ----------------------------------------------------------------------

 Structure from the checkpoint file:  "2-1-3-oso.chk"
 -------------------
 Title Card Required
 -------------------
 Charge = -1 Multiplicity = 3

 SCF Done:  E(UB3LYP) =  -156.487747569     A.U. after    1 cycles

 1\1\GINC-NODE16\Stability\UB3LYP\Gen\B6Li1(1-,3)\HHARB\19-Jun-2019\0\\
 #p ub3lyp geom=allcheck guess=read chkbasis stable=opt scf=(novaracc,m
 axcycles=512) int=(acc2e=12,grid=ultrafine)\\Title Card Required\\-1,3
 \Li,0,0.,0.,1.6708\B,0,0.,2.0431,0.125\B,0,0.,-2.0431,0.125\B,0,1.0137
 ,0.9631,-0.2818\B,0,-0.6442,0.613,-0.3444\B,0,-1.0137,-0.9631,-0.2818\
 B,0,0.6442,-0.613,-0.3444\\Version=ES64L-GDVRevI.10+\State=3-B\HF=-156
 .4877476\S2=2.020899\S2-1=0.\S2A=2.000224\RMSD=5.119e-10\Dipole=0.,0.,
 1.2895287\Quadrupole=1.2807157,-14.4295758,13.1488601,-1.8207133,0.,0.

 Normal termination of Gaussian DV at Wed Jun 19 17:51:58 2019.

 ----------------------------------------------------------------------
 #p ub3lyp geom=allcheck guess=read chkbasis opt freq scf=(novaracc,max
 cycles=512) int=(acc2e=12,grid=ultrafine)
 ----------------------------------------------------------------------

 Structure from the checkpoint file:  "2-1-3-oso.chk"
 -------------------
 Title Card Required
 -------------------
 Charge = -1 Multiplicity = 3

 SCF Done:  E(UB3LYP) =  -156.487747569     A.U. after    1 cycles
 Optimization completed.
    -- Stationary point found.
 Normal termination of Gaussian DV at Wed Jun 19 17:52:02 2019.

 ------------------------------------------------------------------
 #P Geom=AllCheck Guess=TCheck SCRF=Check GenChk UB3LYP/ChkBas Freq
 ------------------------------------------------------------------

 Structure from the checkpoint file:  "2-1-3-oso.chk"
 -------------------
 Title Card Required
 -------------------
 Charge = -1 Multiplicity = 3

 SCF Done:  E(UB3LYP) =  -156.487747569     A.U. after    1 cycles

  Exact polarizability: 126.550   7.704 228.772   0.000  -0.000 124.597
 Approx polarizability: 234.144  14.213 390.298   0.000  -0.000 186.650

                      1                      2                      3
                      B                      A                      B
 Frequencies --    155.9669               173.6013               183.0059
 Red. masses --      8.2554                10.9153                 7.9313
 Frc consts  --      0.1183                 0.1938                 0.1565
 IR Inten    --     10.9983                40.0951                16.2932

                      4                      5                      6
                      A                      B                      A
 Frequencies --    411.2957               475.8920               514.8819
 Red. masses --      9.5629                10.7366                 8.9911
 Frc consts  --      0.9531                 1.4326                 1.4044
 IR Inten    --      7.1764                 0.1577                36.9992

                      7                      8                      9
                      B                      A                      A
 Frequencies --    543.5788               573.6617               637.4290
 Red. masses --     10.9732                10.0113                10.6888
 Frc consts  --      1.9103                 1.9411                 2.5588
 IR Inten    --      5.3959                 3.6202                15.2583

                     10                     11                     12
                      B                      A                      A
 Frequencies --    750.2274               850.0059               934.5518
 Red. masses --     11.0085                11.0071                11.0081
 Frc consts  --      3.6506                 4.6856                 5.6646
 IR Inten    --     63.7633                 1.9202                 0.0504

                     13                     14                     15
                      B                      B                      A
 Frequencies --   1086.5441              1162.2856              1268.5762
 Red. masses --     11.0068                11.0090                11.0069
 Frc consts  --      7.6561                 8.7624                10.4363
 IR Inten    --      0.0868                69.8254                 6.3097

 - Thermochemistry -
 -------------------
 Temperature   298.150 Kelvin.  Pressure   1.00000 Atm.
 Atom     1 has atomic number  3 and mass   7.01600

 Molecular mass:    73.07184 amu.
 Principal axes and moments of inertia in atomic units:
                           1         2         3
     Eigenvalues --   193.69208 523.87566 544.13214
           X            0.13983   0.99018   0.00000
           Y            0.99018  -0.13983   0.00000
           Z            0.00000  -0.00000   1.00000
 This molecule is an asymmetric top.
 Rotational symmetry number  2.
 Rotational temperatures (Kelvin)      0.44717     0.16533     0.15918
 Rotational constants (GHZ):           9.31758     3.44498     3.31673
 Zero-point vibrational energy      58147.5 (Joules/Mol)
                                   13.89759 (Kcal/Mol)
 Warning -- explicit consideration of   8 degrees of freedom as
           vibrations may cause significant error
 Vibrational temperatures:    224.40   249.77   263.30   591.76   684.70
          (Kelvin)            740.80   782.09   825.37   917.12  1079.41
                             1222.97  1344.61  1563.29  1672.27  1825.20

 Zero-point correction=                           0.022147 (Hartree/Particle)
 Thermal correction to Energy=                    0.028333
 Thermal correction to Enthalpy=                  0.029277
 Thermal correction to Gibbs Free Energy=        -0.007211
 Sum of electronic and zero-point Energies=           -156.465600
 Sum of electronic and thermal Energies=              -156.459415
 Sum of electronic and thermal Enthalpies=            -156.458471
 Sum of electronic and thermal Free Energies=         -156.494958

                     E (Thermal)             CV                S
                      KCal/Mol        Cal/Mol-Kelvin    Cal/Mol-Kelvin
 Total                   17.779             21.207             76.795
 Electronic               0.000              0.000              2.183
 Translational            0.889              2.981             38.783
 Rotational               0.889              2.981             24.138
 Vibrational             16.002             15.245             11.691
 Vibration     1          0.620              1.896              2.598
 Vibration     2          0.627              1.875              2.396
 Vibration     3          0.631              1.863              2.298
 Vibration     4          0.775              1.446              0.922
 Vibration     5          0.833              1.304              0.721
 Vibration     6          0.870              1.217              0.622
 Vibration     7          0.899              1.154              0.558
 Vibration     8          0.930              1.088              0.497

                           ! Non-Optimized Parameters !
 Normal termination of Gaussian DV at Wed Jun 19 17:52:43 2019.

 Structure from the checkpoint file:  "2-1-3-oso-stable.chk"
 -------------------
 Title Card Required
 -------------------
 Charge = -1 Multiplicity = 3

                         Standard orientation:
 ---------------------------------------------------------------------
 Center     Atomic      Atomic             Coordinates (Angstroms)
 Number     Number       Type             X           Y           Z
 ---------------------------------------------------------------------
      1          3           0        0.000000    0.000000    1.670788
      2          5           0        0.000000    2.043100    0.124988
      3          5           0       -0.000000   -2.043100    0.124988
      4          5           0        1.013700    0.963100   -0.281812
      5          5           0       -0.644200    0.613000   -0.344412
      6          5           0       -1.013700   -0.963100   -0.281812
      7          5           0        0.644200   -0.613000   -0.344412
 ---------------------------------------------------------------------

 SCF Done:  E(UB3LYP) =  -156.487747569     A.U. after    1 cycles

 The electronic state is 3-B.
 Alpha  occ. eigenvalues --   -6.56314  -6.56313  -6.56153  -6.56125  -6.55129
 Alpha  occ. eigenvalues --   -6.55124  -1.86555  -0.50887  -0.39801  -0.25286
 Alpha  occ. eigenvalues --   -0.23169  -0.14173  -0.10694  -0.09893  -0.09761
 Alpha  occ. eigenvalues --   -0.05351  -0.03744  -0.01559
 Alpha virt. eigenvalues --    0.06130   0.07278   0.07388   0.08162   0.08400
 Alpha virt. eigenvalues --    0.08983   0.11326   0.12946   0.13649   0.13780
 Alpha virt. eigenvalues --    0.14330   0.14804   0.15188   0.15359   0.15837

  Beta  occ. eigenvalues --   -6.56052  -6.56025  -6.55285  -6.55283  -6.54967
  Beta  occ. eigenvalues --   -6.54962  -1.86575  -0.50077  -0.38477  -0.23064
  Beta  occ. eigenvalues --   -0.22294  -0.13899  -0.09539  -0.07581  -0.07289
  Beta  occ. eigenvalues --   -0.03271
  Beta virt. eigenvalues --    0.05289   0.05908   0.07370   0.07501   0.07676
  Beta virt. eigenvalues --    0.08329   0.09462   0.09470   0.12182   0.13229
  Beta virt. eigenvalues --    0.14153   0.14296   0.14710   0.15283   0.15629

 Mulliken charges and spin densities:
               1          2
     1  Li   0.022879  -0.014209
     2  B   -0.423047   0.824672
     3  B   -0.423047   0.824672
     4  B   -0.095133   0.195881
     5  B    0.006741  -0.013449
     6  B   -0.095133   0.195881
     7  B    0.006741  -0.013449
 Sum of Mulliken charges =  -1.00000   2.00000

 Dipole moment (field-independent basis, Debye):
    X=              0.0000    Y=             -0.0000    Z=              3.2777  Tot=              3.2777
 Quadrupole moment (field-independent basis, Debye-Ang):
   XX=            -53.0251   YY=            -74.1560   ZZ=            -37.0620
   XY=             -2.4489   XZ=              0.0000   YZ=              0.0000

 Normal termination of Gaussian DV at Wed Jun 19 17:53:14 2019.
