 ----------------------------------------------------------------------
 #p ub3lyp/6-311+G* scf=(novaracc,maxcycles=512) int=(acc2e=12,grid=ult
 rafine) opt freq
 ----------------------------------------------------------------------

 -------------------
 Title Card Required
 -------------------
 Symbolic Z-matrix:
 Charge = -1 Multiplicity = 5

 SCF Done:  E(UB3LYP) =  -156.420225974     A.U. after   23 cycles
 SCF Done:  E(UB3LYP) =  -156.433832461     A.U. after   18 cycles
 SCF Done:  E(UB3LYP) =  -156.437828087     A.U. after   18 cycles
 SCF Done:  E(UB3LYP) =  -156.440515239     A.U. after   17 cycles
 SCF Done:  E(UB3LYP) =  -156.441500682     A.U. after   17 cycles
 SCF Done:  E(UB3LYP) =  -156.441943311     A.U. after   16 cycles
 SCF Done:  E(UB3LYP) =  -156.442342251     A.U. after   18 cycles
 SCF Done:  E(UB3LYP) =  -156.442441415     A.U. after   17 cycles
 SCF Done:  E(UB3LYP) =  -156.442503442     A.U. after   17 cycles
 SCF Done:  E(UB3LYP) =  -156.442570067     A.U. after   18 cycles
 SCF Done:  E(UB3LYP) =  -156.442701185     A.U. after   17 cycles
 SCF Done:  E(UB3LYP) =  -156.442744037     A.U. after   16 cycles
 SCF Done:  E(UB3LYP) =  -156.442759679     A.U. after   16 cycles
 SCF Done:  E(UB3LYP) =  -156.442768276     A.U. after   15 cycles
 SCF Done:  E(UB3LYP) =  -156.442770306     A.U. after   14 cycles
 Optimization completed.
    -- Stationary point found.
 Normal termination of Gaussian DV at Wed Jun 19 17:55:00 2019.

 ----------------------------------------------------------------------
 #P Geom=AllCheck Guess=TCheck SCRF=Check GenChk UB3LYP/6-311+G(d) Freq
 ----------------------------------------------------------------------

 Structure from the checkpoint file:  "3-1-5-oso.chk"
 -------------------
 Title Card Required
 -------------------
 Charge = -1 Multiplicity = 5

 SCF Done:  E(UB3LYP) =  -156.442770306     A.U. after    1 cycles
 Optimization completed.
 Normal termination of Gaussian DV at Wed Jun 19 17:55:48 2019.

 ----------------------------------------------------------------------
 #p ub3lyp geom=allcheck guess=read chkbasis stable=opt scf=(novaracc,m
 axcycles=512) int=(acc2e=12,grid=ultrafine)
 ----------------------------------------------------------------------

 Structure from the checkpoint file:  "3-1-5-oso.chk"
 -------------------
 Title Card Required
 -------------------
 Charge = -1 Multiplicity = 5

 SCF Done:  E(UB3LYP) =  -156.442770306     A.U. after    1 cycles

 1\1\GINC-NODE18\Stability\UB3LYP\Gen\B6Li1(1-,5)\HHARB\19-Jun-2019\0\\
 #p ub3lyp geom=allcheck guess=read chkbasis stable=opt scf=(novaracc,m
 axcycles=512) int=(acc2e=12,grid=ultrafine)\\Title Card Required\\-1,5
 \B,0,1.3806350711,-0.0108541956,0.\B,0,1.7367124748,-1.5192492263,0.\B
 ,0,0.1062238177,-1.1609665486,0.\B,0,-1.3647160925,-0.5887584595,0.\B,
 0,-1.6958719162,0.9312050683,0.\B,0,-0.0972002061,0.5712511321,0.\Li,0
 ,-0.3004831488,2.9249722296,0.\\Version=ES64L-GDVRevI.10+\State=5-A"\H
 F=-156.4427703\S2=6.025466\S2-1=0.\S2A=6.000192\RMSD=4.863e-09\Dipole=

 Normal termination of Gaussian DV at Wed Jun 19 17:56:28 2019.

 ----------------------------------------------------------------------
 #p ub3lyp geom=allcheck guess=read chkbasis opt freq scf=(novaracc,max
 cycles=512) int=(acc2e=12,grid=ultrafine)
 ----------------------------------------------------------------------

 Structure from the checkpoint file:  "3-1-5-oso.chk"
 -------------------
 Title Card Required
 -------------------
 Charge = -1 Multiplicity = 5

 SCF Done:  E(UB3LYP) =  -156.442770306     A.U. after    1 cycles
    -- Stationary point found.
 Normal termination of Gaussian DV at Wed Jun 19 17:56:35 2019.

 ------------------------------------------------------------------
 #P Geom=AllCheck Guess=TCheck SCRF=Check GenChk UB3LYP/ChkBas Freq
 ------------------------------------------------------------------

 Structure from the checkpoint file:  "3-1-5-oso.chk"
 -------------------
 Title Card Required
 -------------------
 Charge = -1 Multiplicity = 5

 SCF Done:  E(UB3LYP) =  -156.442770306     A.U. after    1 cycles

  Exact polarizability: 499.424 -68.376 540.184   0.000  -0.000 568.559
 Approx polarizability: 558.252-104.304 485.922   0.000  -0.000 435.962

                      1                      2                      3
                     A"                     A'                     A"
 Frequencies --     85.9387                92.9274               207.4922
 Red. masses --      9.2321                 7.9545                11.0092
 Frc consts  --      0.0402                 0.0405                 0.2793
 IR Inten    --    109.3751                26.7867                 0.4582

                      4                      5                      6
                     A'                     A"                     A"
 Frequencies --    310.6536               360.1473               463.2405
 Red. masses --      7.4298                11.0073                11.0091
 Frc consts  --      0.4225                 0.8412                 1.3919
 IR Inten    --     66.7602                10.9098                 0.0786

                      7                      8                      9
                     A'                     A'                     A'
 Frequencies --    513.9118               598.0444               609.0605
 Red. masses --     10.9946                10.9390                10.9906
 Frc consts  --      1.7108                 2.3051                 2.4021
 IR Inten    --      2.3189                73.3910                 5.4362

                     10                     11                     12
                     A'                     A'                     A'
 Frequencies --    746.1266               841.7277               971.6377
 Red. masses --     11.0026                11.0041                11.0066
 Frc consts  --      3.6089                 4.5935                 6.1222
 IR Inten    --     79.2755                 5.3305                 4.7081

                     13                     14                     15
                     A'                     A'                     A'
 Frequencies --   1092.1737              1190.2432              1327.5133
 Red. masses --     11.0081                11.0092                11.0092
 Frc consts  --      7.7365                 9.1892                11.4310
 IR Inten    --      2.5170                22.9915                 2.5522

 - Thermochemistry -
 -------------------
 Temperature   298.150 Kelvin.  Pressure   1.00000 Atm.
 Atom     1 has atomic number  5 and mass  11.00931

 Molecular mass:    73.07184 amu.
 Principal axes and moments of inertia in atomic units:
                           1         2         3
     Eigenvalues --   235.91483 565.47789 801.39272
           X           -0.55877   0.82932   0.00000
           Y            0.82932   0.55877   0.00000
           Z            0.00000   0.00000   1.00000
 This molecule is an asymmetric top.
 Rotational symmetry number  1.
 Rotational temperatures (Kelvin)      0.36714     0.15317     0.10808
 Rotational constants (GHZ):           7.64997     3.19153     2.25201
 Zero-point vibrational energy      56289.3 (Joules/Mol)
                                   13.45347 (Kcal/Mol)
 Warning -- explicit consideration of   9 degrees of freedom as
           vibrations may cause significant error
 Vibrational temperatures:    123.65   133.70   298.54   446.96   518.17
          (Kelvin)            666.50   739.40   860.45   876.30  1073.51
                             1211.06  1397.97  1571.39  1712.49  1910.00

 Zero-point correction=                           0.021439 (Hartree/Particle)
 Thermal correction to Energy=                    0.028128
 Thermal correction to Enthalpy=                  0.029072
 Thermal correction to Gibbs Free Energy=        -0.010356
 Sum of electronic and zero-point Energies=           -156.421331
 Sum of electronic and thermal Energies=              -156.414642
 Sum of electronic and thermal Enthalpies=            -156.413698
 Sum of electronic and thermal Free Energies=         -156.453126

                     E (Thermal)             CV                S
                      KCal/Mol        Cal/Mol-Kelvin    Cal/Mol-Kelvin
 Total                   17.651             21.882             82.984
 Electronic               0.000              0.000              3.198
 Translational            0.889              2.981             38.783
 Rotational               0.889              2.981             26.172
 Vibrational             15.873             15.920             14.831
 Vibration     1          0.601              1.959              3.750
 Vibration     2          0.602              1.954              3.597
 Vibration     3          0.641              1.829              2.066
 Vibration     4          0.699              1.653              1.359
 Vibration     5          0.735              1.554              1.121
 Vibration     6          0.821              1.332              0.757
 Vibration     7          0.869              1.219              0.624
 Vibration     8          0.956              1.036              0.453
 Vibration     9          0.968              1.013              0.434

 Optimization completed.
    -- Stationary point found.
 Normal termination of Gaussian DV at Wed Jun 19 17:57:22 2019.

 Structure from the checkpoint file:  "3-1-5-oso-stable.chk"
 -------------------
 Title Card Required
 -------------------
 Charge = -1 Multiplicity = 5

                         Standard orientation:
 ---------------------------------------------------------------------
 Center     Atomic      Atomic             Coordinates (Angstroms)
 Number     Number       Type             X           Y           Z
 ---------------------------------------------------------------------
      1          5           0        1.383653   -0.199802    0.000000
      2          5           0        1.528734   -1.742850    0.000000
      3          5           0       -0.036925   -1.163566    0.000000
      4          5           0       -1.415110   -0.394351   -0.000000
      5          5           0       -1.533915    1.156725   -0.000000
      6          5           0       -0.000000    0.580165   -0.000000
      7          3           0        0.122605    2.939464   -0.000000
 ---------------------------------------------------------------------

 SCF Done:  E(UB3LYP) =  -156.442770306     A.U. after    3 cycles

 The electronic state is 5-A".
 Alpha  occ. eigenvalues --   -6.63689  -6.63350  -6.62192  -6.61833  -6.61591
 Alpha  occ. eigenvalues --   -6.61276  -1.87914  -0.56317  -0.46362  -0.31905
 Alpha  occ. eigenvalues --   -0.29317  -0.18883  -0.18132  -0.16026  -0.15603
 Alpha  occ. eigenvalues --   -0.12475  -0.09096  -0.08016   0.01372
 Alpha virt. eigenvalues --    0.05596   0.06075   0.06561   0.06633   0.06812
 Alpha virt. eigenvalues --    0.07443   0.08317   0.10669   0.10889   0.11706
 Alpha virt. eigenvalues --    0.12268   0.13048   0.13339   0.14314   0.14428

  Beta  occ. eigenvalues --   -6.62217  -6.62012  -6.61875  -6.61739  -6.61347
  Beta  occ. eigenvalues --   -6.61127  -1.87529  -0.54831  -0.43513  -0.28861
  Beta  occ. eigenvalues --   -0.28090  -0.16519  -0.15805  -0.13915  -0.13061
  Beta virt. eigenvalues --   -0.00937  -0.00385   0.03724   0.06493   0.06506
  Beta virt. eigenvalues --    0.07024   0.07122   0.07447   0.07905   0.09675
  Beta virt. eigenvalues --    0.11392   0.12544   0.12659   0.12987   0.13155

 Mulliken charges and spin densities:
               1          2
     1  B   -0.150537   0.663671
     2  B   -0.347445   1.261302
     3  B    0.685844  -0.034776
     4  B   -0.103773   0.154877
     5  B   -0.578021   1.118415
     6  B    0.118656  -0.227761
     7  Li  -0.624724   1.064271
 Sum of Mulliken charges =  -1.00000   4.00000

 Dipole moment (field-independent basis, Debye):
    X=             -1.8821    Y=             -8.6623    Z=              0.0000  Tot=              8.8644
 Quadrupole moment (field-independent basis, Debye-Ang):
   XX=            -67.8656   YY=           -116.2837   ZZ=            -53.8372
   XY=             -3.7995   XZ=             -0.0000   YZ=              0.0000

 Normal termination of Gaussian DV at Wed Jun 19 17:58:02 2019.
