 ----------------------------------------------------------------------
 #p ub3lyp/6-311+G* scf=(novaracc,maxcycles=512) int=(acc2e=12,grid=ult
 rafine) opt freq
 ----------------------------------------------------------------------

 -------------------
 Title Card Required
 -------------------
 Symbolic Z-matrix:
 Charge = -1 Multiplicity = 5

 SCF Done:  E(UB3LYP) =  -156.424956911     A.U. after   21 cycles
 SCF Done:  E(UB3LYP) =  -156.436712133     A.U. after   17 cycles
 SCF Done:  E(UB3LYP) =  -156.442375569     A.U. after   16 cycles
 SCF Done:  E(UB3LYP) =  -156.442427206     A.U. after   13 cycles
 SCF Done:  E(UB3LYP) =  -156.442431526     A.U. after   12 cycles
 SCF Done:  E(UB3LYP) =  -156.442433570     A.U. after   12 cycles
 Optimization completed.
    -- Stationary point found.
 Normal termination of Gaussian DV at Wed Jun 19 17:51:01 2019.

 ----------------------------------------------------------------------
 #P Geom=AllCheck Guess=TCheck SCRF=Check GenChk UB3LYP/6-311+G(d) Freq
 ----------------------------------------------------------------------

 Structure from the checkpoint file:  "4-1-5-oso.chk"
 -------------------
 Title Card Required
 -------------------
 Charge = -1 Multiplicity = 5

 SCF Done:  E(UB3LYP) =  -156.442433570     A.U. after    1 cycles
                           ! Non-Optimized Parameters !
 Normal termination of Gaussian DV at Wed Jun 19 17:51:42 2019.

 ----------------------------------------------------------------------
 #p ub3lyp geom=allcheck guess=read chkbasis stable=opt scf=(novaracc,m
 axcycles=512) int=(acc2e=12,grid=ultrafine)
 ----------------------------------------------------------------------

 Structure from the checkpoint file:  "4-1-5-oso.chk"
 -------------------
 Title Card Required
 -------------------
 Charge = -1 Multiplicity = 5

 SCF Done:  E(UB3LYP) =  -156.442433570     A.U. after    1 cycles

 1\1\GINC-NODE02\Stability\UB3LYP\Gen\B6Li1(1-,5)\HHARB\19-Jun-2019\0\\
 #p ub3lyp geom=allcheck guess=read chkbasis stable=opt scf=(novaracc,m
 axcycles=512) int=(acc2e=12,grid=ultrafine)\\Title Card Required\\-1,5
 \Li,0,0.,0.,-2.3280559536\B,0,0.,0.,-0.2518591857\B,0,-0.2015684953,1.
 5902280987,-0.7425802387\B,0,0.2015684953,-1.5902280987,-0.7425802387\
 B,0,-0.1749638357,1.3813175224,0.8117395989\B,0,0.1749638357,-1.381317
 5224,0.8117395989\B,0,0.,0.,1.5165964189\\Version=ES64L-GDVRevI.10+\St
 ate=5-A\HF=-156.4424336\S2=6.023732\S2-1=0.\S2A=6.000183\RMSD=9.019e-1

 Normal termination of Gaussian DV at Wed Jun 19 17:52:04 2019.

 ----------------------------------------------------------------------
 #p ub3lyp geom=allcheck guess=read chkbasis opt freq scf=(novaracc,max
 cycles=512) int=(acc2e=12,grid=ultrafine)
 ----------------------------------------------------------------------

 Structure from the checkpoint file:  "4-1-5-oso.chk"
 -------------------
 Title Card Required
 -------------------
 Charge = -1 Multiplicity = 5

 SCF Done:  E(UB3LYP) =  -156.442433570     A.U. after    1 cycles
 Optimization completed.
    -- Stationary point found.
 Normal termination of Gaussian DV at Wed Jun 19 17:52:08 2019.

 ------------------------------------------------------------------
 #P Geom=AllCheck Guess=TCheck SCRF=Check GenChk UB3LYP/ChkBas Freq
 ------------------------------------------------------------------

 Structure from the checkpoint file:  "4-1-5-oso.chk"
 -------------------
 Title Card Required
 -------------------
 Charge = -1 Multiplicity = 5

 SCF Done:  E(UB3LYP) =  -156.442433570     A.U. after    1 cycles

  Exact polarizability: 255.657   0.019 197.427  -0.000  -0.000 270.534
 Approx polarizability: 196.189  -0.003 360.784  -0.000   0.000 424.994

                      1                      2                      3
                      B                      B                      B
 Frequencies --     84.2323               233.1565               328.2904
 Red. masses --      8.6670                10.9642                 7.8775
 Frc consts  --      0.0362                 0.3512                 0.5002
 IR Inten    --     24.1246                 0.0545                11.7399

                      4                      5                      6
                      A                      B                      A
 Frequencies --    329.0307               359.5313               482.9008
 Red. masses --     11.0093                10.9658                 9.1454
 Frc consts  --      0.7022                 0.8352                 1.2565
 IR Inten    --      0.0000                82.8232                 2.7174

                      7                      8                      9
                      A                      B                      A
 Frequencies --    503.5287               564.4441               611.6848
 Red. masses --      9.1265                10.9733                10.2208
 Frc consts  --      1.3633                 2.0598                 2.2531
 IR Inten    --     21.6090                 4.7050                 1.1792

                     10                     11                     12
                      A                      B                      A
 Frequencies --    685.1977               867.6283               899.7123
 Red. masses --     10.7370                11.0037                10.9885
 Frc consts  --      2.9701                 4.8804                 5.2408
 IR Inten    --     22.1667               112.3058                 5.7513

                     13                     14                     15
                      B                      A                      B
 Frequencies --   1044.4266              1183.3019              1267.0064
 Red. masses --     11.0059                11.0091                11.0081
 Frc consts  --      7.0735                 9.0823                10.4116
 IR Inten    --      0.8126                14.6568                99.3662

 - Thermochemistry -
 -------------------
 Temperature   298.150 Kelvin.  Pressure   1.00000 Atm.
 Atom     1 has atomic number  3 and mass   7.01600

 Molecular mass:    73.07184 amu.
 Principal axes and moments of inertia in atomic units:
                           1         2         3
     Eigenvalues --   323.84382 354.47184 678.31566
           X           -0.00005   0.00000   1.00000
           Y            1.00000   0.00000   0.00005
           Z           -0.00000   1.00000   0.00000
 This molecule is an asymmetric top.
 Rotational symmetry number  2.
 Rotational temperatures (Kelvin)      0.26746     0.24435     0.12769
 Rotational constants (GHZ):           5.57288     5.09135     2.66062
 Zero-point vibrational energy      56488.1 (Joules/Mol)
                                   13.50098 (Kcal/Mol)
 Warning -- explicit consideration of   9 degrees of freedom as
           vibrations may cause significant error
 Vibrational temperatures:    121.19   335.46   472.34   473.40   517.29
          (Kelvin)            694.79   724.47   812.11   880.08   985.85
                             1248.32  1294.49  1502.70  1702.51  1822.94

 Zero-point correction=                           0.021515 (Hartree/Particle)
 Thermal correction to Energy=                    0.027834
 Thermal correction to Enthalpy=                  0.028778
 Thermal correction to Gibbs Free Energy=        -0.008679
 Sum of electronic and zero-point Energies=           -156.420918
 Sum of electronic and thermal Energies=              -156.414600
 Sum of electronic and thermal Enthalpies=            -156.413656
 Sum of electronic and thermal Free Energies=         -156.451113

                     E (Thermal)             CV                S
                      KCal/Mol        Cal/Mol-Kelvin    Cal/Mol-Kelvin
 Total                   17.466             21.766             78.836
 Electronic               0.000              0.000              3.198
 Translational            0.889              2.981             38.783
 Rotational               0.889              2.981             24.480
 Vibrational             15.689             15.804             12.375
 Vibration     1          0.601              1.960              3.790
 Vibration     2          0.654              1.790              1.855
 Vibration     3          0.712              1.619              1.268
 Vibration     4          0.712              1.618              1.265
 Vibration     5          0.734              1.556              1.124
 Vibration     6          0.839              1.288              0.702
 Vibration     7          0.859              1.242              0.649
 Vibration     8          0.920              1.108              0.515
 Vibration     9          0.971              1.007              0.430

                           ! Non-Optimized Parameters !
 Normal termination of Gaussian DV at Wed Jun 19 17:52:50 2019.

 Structure from the checkpoint file:  "4-1-5-oso-stable.chk"
 -------------------
 Title Card Required
 -------------------
 Charge = -1 Multiplicity = 5

                         Standard orientation:
 ---------------------------------------------------------------------
 Center     Atomic      Atomic             Coordinates (Angstroms)
 Number     Number       Type             X           Y           Z
 ---------------------------------------------------------------------
      1          3           0       -0.000000    0.000000   -2.328999
      2          5           0       -0.000000    0.000000   -0.252802
      3          5           0       -0.000142    1.602952   -0.743523
      4          5           0        0.000142   -1.602952   -0.743523
      5          5           0        0.000000    1.392354    0.810797
      6          5           0       -0.000000   -1.392354    0.810797
      7          5           0        0.000000   -0.000000    1.515654
 ---------------------------------------------------------------------

 SCF Done:  E(UB3LYP) =  -156.442433570     A.U. after    2 cycles

 The electronic state is 5-A.
 Alpha  occ. eigenvalues --   -6.58244  -6.58243  -6.56511  -6.56170  -6.56168
 Alpha  occ. eigenvalues --   -6.54724  -1.85273  -0.50197  -0.39345  -0.30762
 Alpha  occ. eigenvalues --   -0.18241  -0.15977  -0.13944  -0.12894  -0.09383
 Alpha  occ. eigenvalues --   -0.08057  -0.03662  -0.03105   0.01892
 Alpha virt. eigenvalues --    0.05450   0.07067   0.07086   0.07803   0.08392
 Alpha virt. eigenvalues --    0.11621   0.11777   0.12922   0.13567   0.13803
 Alpha virt. eigenvalues --    0.14666   0.14953   0.15223   0.15598   0.15779

  Beta  occ. eigenvalues --   -6.56947  -6.56947  -6.56451  -6.55862  -6.55860
  Beta  occ. eigenvalues --   -6.54257  -1.85165  -0.48267  -0.36479  -0.27389
  Beta  occ. eigenvalues --   -0.15245  -0.14088  -0.10129  -0.08854  -0.06689
  Beta virt. eigenvalues --    0.02557   0.04390   0.05641   0.06643   0.07198
  Beta virt. eigenvalues --    0.07240   0.08343   0.09076   0.09580   0.12320
  Beta virt. eigenvalues --    0.12963   0.13637   0.14187   0.14207   0.15048

 Mulliken charges and spin densities:
               1          2
     1  Li  -0.268241   0.323341
     2  B    0.933018  -0.318378
     3  B   -0.905369   1.212319
     4  B   -0.905369   1.212319
     5  B    0.102893   0.480230
     6  B    0.102893   0.480230
     7  B   -0.059825   0.609939
 Sum of Mulliken charges =  -1.00000   4.00000

 Dipole moment (field-independent basis, Debye):
    X=              0.0000    Y=             -0.0000    Z=             -3.8174  Tot=              3.8174
 Quadrupole moment (field-independent basis, Debye-Ang):
   XX=            -50.4835   YY=            -66.0285   ZZ=            -45.2095
   XY=              0.0007   XZ=             -0.0000   YZ=              0.0000

 Normal termination of Gaussian DV at Wed Jun 19 17:53:14 2019.
