                         Program Version 5.0.3 -  RELEASE  -
|  1> ! wB97X-D3   def2-SVP def2-SVP/C def2/J  def2/JK   CPCM(Water) opt freq
|  2> %pal nprocs 32
|  3> end
|  4> %maxcore 20000
|  5> %scf
|  6> MaxIter 100
|  7> end
|  8> %geom
|  9> MaxIter 100
| 10> end
| 11> %output printlevel small
| 12> print[P_Hirshfeld] 1
| 13> print[P_Loewdin] 1
| 14> print[P_Mulliken] 1
| 15> print[P_NatPop] 1
| 16>  end
| 17> *xyz 1 1
| 18> O   -3.878084 -2.092453 0.586127
| 19> C   -2.770324 -1.650237 0.699051
| 20> C   -2.378174 -0.309008 0.168285
| 21> C   -3.413195 0.615627 0.005496
| 22> C   -3.163811 1.947929 -0.276261
| 23> C   -1.856913 2.3879 -0.328075
| 24> C   -0.809837 1.473753 -0.194649
| 25> C   -1.054181 0.09385 -0.03264
| 26> C   0.063633 -0.863299 -0.130575
| 27> C   -0.147678 -2.176811 -0.512755
| 28> C   0.906413 -3.088898 -0.55619
| 29> C   2.196018 -2.712465 -0.242941
| 30> C   2.429326 -1.386261 0.067947
| 31> F   3.665742 -1.005703 0.304999
| 32> C   1.397625 -0.441203 0.103817
| 33> C   1.675201 0.964827 0.211229
| 34> O   2.75869 1.481653 0.446193
| 35> C   0.541225 1.954203 -0.089373
| 36> O   0.881866 3.129217 -0.152334
| 37> H   -1.993344 -2.181318 1.274674
| 38> H   -4.431688 0.271366 0.133344
| 39> H   -3.982751 2.641431 -0.403165
| 40> H   -1.635366 3.438184 -0.462006
| 41> H   -1.124209 -2.511631 -0.830649
| 42> H   0.707255 -4.111299 -0.846814
| 43> H   3.01704 -3.415725 -0.266823
| 44> Li   2.724302 3.35023 0.235022
| 45> *
| 46>
| 47>                          ****END OF INPUT****
 Total Charge           Charge          ....    1
 Multiplicity           Mult            ....    1
 Number of Electrons    NEL             ....  132
Dispersion correction           -0.011718787
FINAL SINGLE POINT ENERGY      -907.865750958046
Dispersion correction            ... done
Dispersion correction           -0.011656642
FINAL SINGLE POINT ENERGY      -907.867615151912
Dispersion correction            ... done
Dispersion correction           -0.011649485
FINAL SINGLE POINT ENERGY      -907.867614776006
Dispersion correction            ... done
FINAL SINGLE POINT ENERGY      -907.867734627625
FINAL SINGLE POINT ENERGY      -907.867985690222
FINAL SINGLE POINT ENERGY      -907.868290162536
FINAL SINGLE POINT ENERGY      -907.868384516925
FINAL SINGLE POINT ENERGY      -907.868496538250
Dispersion correction           -0.011662618
FINAL SINGLE POINT ENERGY      -907.868510051371
Dispersion correction            ... done
Dispersion correction           -0.011666219
FINAL SINGLE POINT ENERGY      -907.868516949202
Dispersion correction            ... done
                    ***********************HURRAY********************

CARTESIAN COORDINATES (ANGSTROEM)
---------------------------------
  O     -3.926794   -2.083257    0.589909
  C     -2.801008   -1.655081    0.677278
  C     -2.398663   -0.310263    0.156608
  C     -3.434359    0.625071    0.011036
  C     -3.180297    1.964679   -0.260614
  C     -1.861786    2.395331   -0.321621
  C     -0.817054    1.470992   -0.200882
  C     -1.062184    0.087461   -0.043379
  C      0.067993   -0.877449   -0.132366
  C     -0.140898   -2.201764   -0.507900
  C      0.919627   -3.114976   -0.547785
  C      2.212947   -2.724276   -0.238869
  C      2.442027   -1.388515    0.067362
  F      3.685298   -1.005010    0.297240
  C      1.403800   -0.445076    0.105231
  C      1.688446    0.976783    0.213765
  O      2.772288    1.483072    0.463019
  C      0.550282    1.966267   -0.109428
  O      0.874744    3.141086   -0.194274
  H     -2.017148   -2.218469    1.228964
  H     -4.458920    0.271711    0.150867
  H     -4.002533    2.673436   -0.374044
  H     -1.617067    3.451908   -0.449432
  H     -1.127741   -2.544487   -0.818869
  H      0.721738   -4.150413   -0.833154
  H      3.054839   -3.418185   -0.261580
  Li     2.777201    3.433281    0.243849

 Multiplicity           Mult            ....    1
 Number of Electrons    NEL             ....  132
 Basis Dimension        Dim             ....  310

ORBITAL ENERGIES
----------------

  NO   OCC          E(Eh)            E(eV)
   0   2.0000     -24.837421      -675.8606
   1   2.0000     -19.300212      -525.1855
   2   2.0000     -19.298907      -525.1499
   3   2.0000     -19.257555      -524.0247
   4   2.0000     -10.440967      -284.1132
   5   2.0000     -10.438326      -284.0413
   6   2.0000     -10.424164      -283.6559
   7   2.0000     -10.401699      -283.0446
   8   2.0000     -10.363326      -282.0005
   9   2.0000     -10.360865      -281.9335
  10   2.0000     -10.346152      -281.5331
  11   2.0000     -10.341059      -281.3945
  12   2.0000     -10.338839      -281.3341
  13   2.0000     -10.338554      -281.3263
  14   2.0000     -10.336164      -281.2613
  15   2.0000     -10.335665      -281.2477
  16   2.0000     -10.330282      -281.1013
  17   2.0000     -10.326908      -281.0094
  18   2.0000     -10.324345      -280.9397
  19   2.0000      -2.131069       -57.9893
  20   2.0000      -1.366391       -37.1814
  21   2.0000      -1.232494       -33.5379
  22   2.0000      -1.195127       -32.5211
  23   2.0000      -1.173181       -31.9239
  24   2.0000      -1.038378       -28.2557
  25   2.0000      -1.006403       -27.3856
  26   2.0000      -0.946126       -25.7454
  27   2.0000      -0.925719       -25.1901
  28   2.0000      -0.906102       -24.6563
  29   2.0000      -0.878504       -23.9053
  30   2.0000      -0.839342       -22.8396
  31   2.0000      -0.796284       -21.6680
  32   2.0000      -0.768671       -20.9166
  33   2.0000      -0.767598       -20.8874
  34   2.0000      -0.741777       -20.1848
  35   2.0000      -0.707684       -19.2571
  36   2.0000      -0.689600       -18.7650
  37   2.0000      -0.667822       -18.1724
  38   2.0000      -0.663161       -18.0455
  39   2.0000      -0.636730       -17.3263
  40   2.0000      -0.628429       -17.1004
  41   2.0000      -0.619910       -16.8686
  42   2.0000      -0.611942       -16.6518
  43   2.0000      -0.604940       -16.4612
  44   2.0000      -0.600133       -16.3305
  45   2.0000      -0.590558       -16.0699
  46   2.0000      -0.578792       -15.7497
  47   2.0000      -0.574732       -15.6392
  48   2.0000      -0.564695       -15.3661
  49   2.0000      -0.558438       -15.1959
  50   2.0000      -0.537442       -14.6245
  51   2.0000      -0.533895       -14.5280
  52   2.0000      -0.527437       -14.3523
  53   2.0000      -0.509494       -13.8640
  54   2.0000      -0.502577       -13.6758
  55   2.0000      -0.497072       -13.5260
  56   2.0000      -0.487408       -13.2630
  57   2.0000      -0.484351       -13.1799
  58   2.0000      -0.472849       -12.8669
  59   2.0000      -0.454180       -12.3589
  60   2.0000      -0.410681       -11.1752
  61   2.0000      -0.403900       -10.9907
  62   2.0000      -0.379457       -10.3256
  63   2.0000      -0.377791       -10.2802
  64   2.0000      -0.369296       -10.0491
  65   2.0000      -0.345914        -9.4128
  66   0.0000      -0.082570        -2.2468
  67   0.0000      -0.019931        -0.5423
  68   0.0000       0.007030         0.1913
  69   0.0000       0.036382         0.9900
  70   0.0000       0.038289         1.0419

MULLIKEN ATOMIC CHARGES
-----------------------
   0 O :   -0.246924
   1 C :    0.181996
   2 C :   -0.149107
   3 C :    0.025298
   4 C :   -0.006320
   5 C :    0.015786
   6 C :   -0.076956
   7 C :    0.138800
   8 C :    0.096319
   9 C :   -0.108990
  10 C :    0.033682
  11 C :   -0.077221
  12 C :    0.284339
  13 F :   -0.163022
  14 C :   -0.130022
  15 C :    0.228825
  16 O :   -0.286402
  17 C :    0.199641
  18 O :   -0.290479
  19 H :    0.075582
  20 H :    0.062581
  21 H :    0.072518
  22 H :    0.067934
  23 H :    0.076002
  24 H :    0.083184
  25 H :    0.077077
  26 Li:    0.815880
Sum of atomic charges:    1.0000000

LOEWDIN ATOMIC CHARGES
----------------------
   0 O :   -0.167870
   1 C :    0.132957
   2 C :   -0.079322
   3 C :    0.055118
   4 C :   -0.011697
   5 C :    0.058438
   6 C :   -0.080146
   7 C :    0.034358
   8 C :    0.016563
   9 C :   -0.017637
  10 C :    0.042997
  11 C :   -0.037837
  12 C :    0.137703
  13 F :   -0.028132
  14 C :   -0.108543
  15 C :    0.140702
  16 O :   -0.102817
  17 C :    0.144905
  18 O :   -0.101737
  19 H :    0.023607
  20 H :    0.053332
  21 H :    0.057321
  22 H :    0.058712
  23 H :    0.055821
  24 H :    0.062937
  25 H :    0.065240
  26 Li:    0.595027

  Mayer bond orders larger than 0.100000
B(  0-O ,  1-C ) :   2.1138 B(  1-C ,  2-C ) :   0.9391 B(  1-C , 19-H ) :   0.9564
B(  2-C ,  3-C ) :   1.3762 B(  2-C ,  7-C ) :   1.3832 B(  3-C ,  4-C ) :   1.3766
B(  3-C , 20-H ) :   0.9831 B(  4-C ,  5-C ) :   1.3692 B(  4-C , 21-H ) :   0.9937
B(  5-C ,  6-C ) :   1.3538 B(  5-C , 22-H ) :   0.9956 B(  6-C ,  7-C ) :   1.3324
B(  6-C , 17-C ) :   1.0235 B(  7-C ,  8-C ) :   1.0046 B(  8-C ,  9-C ) :   1.4225
B(  8-C , 14-C ) :   1.3001 B(  9-C , 10-C ) :   1.3450 B(  9-C , 23-H ) :   0.9904
B( 10-C , 11-C ) :   1.3812 B( 10-C , 24-H ) :   0.9847 B( 11-C , 12-C ) :   1.3617
B( 11-C , 25-H ) :   0.9930 B( 12-C , 13-F ) :   1.1520 B( 12-C , 14-C ) :   1.2969
B( 14-C , 15-C ) :   1.0227 B( 15-C , 16-O ) :   1.9268 B( 15-C , 17-C ) :   0.8954
B( 16-O , 26-Li) :   0.1707 B( 17-C , 18-O ) :   1.9172 B( 18-O , 26-Li) :   0.1687

Dispersion correction           -0.011667673
FINAL SINGLE POINT ENERGY      -907.868519935695

DIPOLE MOMENT
-------------
                                X             Y             Z
Electronic contribution:     17.59356      10.95981       1.69932
Nuclear contribution   :    -14.70257      -7.64188      -1.86388
                        -----------------------------------------
Total Dipole Moment    :      2.89099       3.31793      -0.16456
                        -----------------------------------------
Magnitude (a.u.)       :      4.40381
Magnitude (Debye)      :     11.19360

Dispersion correction in the Hessian             ... done   (      0.5 sec)

VIBRATIONAL FREQUENCIES
-----------------------

Scaling factor for frequencies =  1.000000000  (already applied!)

   0:         0.00 cm**-1
   1:         0.00 cm**-1
   2:         0.00 cm**-1
   3:         0.00 cm**-1
   4:         0.00 cm**-1
   5:         0.00 cm**-1
   6:        51.22 cm**-1
   7:        58.86 cm**-1
   8:        85.47 cm**-1
   9:       108.67 cm**-1
  10:       116.15 cm**-1
  11:       159.92 cm**-1
  12:       190.29 cm**-1
  13:       215.52 cm**-1
  14:       239.17 cm**-1
  15:       264.71 cm**-1
  16:       295.30 cm**-1
  17:       318.13 cm**-1
  18:       336.65 cm**-1
  19:       356.96 cm**-1
  20:       383.80 cm**-1
  21:       386.27 cm**-1
  22:       430.65 cm**-1
  23:       448.53 cm**-1
  24:       460.37 cm**-1
  25:       491.04 cm**-1
  26:       496.50 cm**-1
  27:       517.10 cm**-1
  28:       524.47 cm**-1
  29:       554.72 cm**-1
  30:       583.83 cm**-1
  31:       624.71 cm**-1
  32:       653.50 cm**-1
  33:       682.30 cm**-1
  34:       734.59 cm**-1
  35:       757.28 cm**-1
  36:       778.10 cm**-1
  37:       787.70 cm**-1
  38:       824.95 cm**-1
  39:       840.19 cm**-1
  40:       880.70 cm**-1
  41:       890.90 cm**-1
  42:       927.10 cm**-1
  43:       954.52 cm**-1
  44:       996.88 cm**-1
  45:       998.42 cm**-1
  46:      1044.75 cm**-1
  47:      1053.06 cm**-1
  48:      1067.49 cm**-1
  49:      1078.95 cm**-1
  50:      1103.70 cm**-1
  51:      1112.05 cm**-1
  52:      1142.07 cm**-1
  53:      1171.95 cm**-1
  54:      1193.54 cm**-1
  55:      1260.62 cm**-1
  56:      1287.97 cm**-1
  57:      1304.04 cm**-1
  58:      1329.22 cm**-1
  59:      1357.27 cm**-1
  60:      1364.44 cm**-1
  61:      1385.90 cm**-1
  62:      1433.16 cm**-1
  63:      1492.57 cm**-1
  64:      1506.58 cm**-1
  65:      1520.17 cm**-1
  66:      1540.29 cm**-1
  67:      1658.67 cm**-1
  68:      1670.22 cm**-1
  69:      1673.92 cm**-1
  70:      1692.81 cm**-1
  71:      1789.95 cm**-1
  72:      1803.34 cm**-1
  73:      1842.15 cm**-1
  74:      3026.97 cm**-1
  75:      3228.47 cm**-1
  76:      3234.30 cm**-1
  77:      3237.11 cm**-1
  78:      3247.02 cm**-1
  79:      3247.82 cm**-1
  80:      3252.57 cm**-1

IR SPECTRUM
-----------

 Mode   freq       eps      Int      T**2         TX        TY        TZ
       cm**-1   L/(mol*cm) km/mol    a.u.
----------------------------------------------------------------------------
  6:     51.22   0.000014    0.07  0.000084  (-0.007307 -0.005526  0.000510)
  7:     58.86   0.001487    7.52  0.007884  (-0.011755  0.000888  0.088007)
  8:     85.47   0.000207    1.05  0.000757  ( 0.002843 -0.003871 -0.027088)
  9:    108.67   0.007132   36.04  0.020481  ( 0.044306 -0.045643 -0.128198)
 10:    116.15   0.003639   18.39  0.009777  ( 0.013445  0.025459 -0.094595)
 11:    159.92   0.005107   25.81  0.009966  (-0.038049  0.007160  0.092016)
 12:    190.29   0.005171   26.13  0.008481  (-0.027943  0.034253  0.080787)
 13:    215.52   0.002652   13.40  0.003839  ( 0.033427 -0.031772  0.041383)
 14:    239.17   0.003024   15.28  0.003946  (-0.030110  0.045274 -0.031456)
 15:    264.71   0.004764   24.08  0.005617  (-0.057280  0.047312 -0.009856)
 16:    295.30   0.000530    2.68  0.000560  ( 0.023425  0.002661 -0.001959)
 17:    318.13   0.002366   11.96  0.002321  (-0.023759 -0.038730  0.016012)
 18:    336.65   0.004492   22.70  0.004164  (-0.036440 -0.051712  0.012741)
 19:    356.96   0.002735   13.82  0.002391  (-0.034886 -0.004663 -0.033949)
 20:    383.80   0.027320  138.06  0.022213  ( 0.061934  0.134571  0.016377)
 21:    386.27   0.011381   57.51  0.009194  (-0.095044 -0.011478  0.005399)
 22:    430.65   0.009257   46.78  0.006708  (-0.033500  0.009193 -0.074171)
 23:    448.53   0.003389   17.13  0.002358  (-0.043460  0.019358  0.009718)
 24:    460.37   0.006065   30.65  0.004111  (-0.058959 -0.020004  0.015320)
 25:    491.04   0.019784   99.98  0.012573  ( 0.058314  0.095365 -0.008824)
 26:    496.50   0.003441   17.39  0.002163  ( 0.008142 -0.043521 -0.014227)
 27:    517.10   0.006122   30.94  0.003695  ( 0.029405  0.051085  0.014845)
 28:    524.47   0.004539   22.94  0.002701  ( 0.042818  0.028688  0.006659)
 29:    554.72   0.003746   18.93  0.002107  (-0.021602 -0.010963 -0.038993)
 30:    583.83   0.003688   18.64  0.001971  ( 0.032858  0.021407 -0.020820)
 31:    624.71   0.002108   10.65  0.001053  (-0.003209  0.022800  0.022870)
 32:    653.50   0.000794    4.01  0.000379  (-0.003974  0.016943 -0.008742)
 33:    682.30   0.005974   30.19  0.002732  (-0.010002 -0.050476  0.009180)
 34:    734.59   0.004670   23.60  0.001984  ( 0.039202  0.017339 -0.012108)
 35:    757.28   0.001555    7.86  0.000641  ( 0.009168  0.020571  0.011556)
 36:    778.10   0.006942   35.08  0.002784  ( 0.014133 -0.043832 -0.025751)
 37:    787.70   0.014216   71.84  0.005632  (-0.023455 -0.021154  0.068077)
 38:    824.95   0.008254   41.71  0.003122  (-0.014836  0.008834 -0.053143)
 39:    840.19   0.005098   25.76  0.001894  ( 0.021238  0.021701 -0.031170)
 40:    880.70   0.013410   67.77  0.004752  (-0.029439  0.045491 -0.042608)
 41:    890.90   0.001668    8.43  0.000584  ( 0.005763 -0.021362 -0.009734)
 42:    927.10   0.004026   20.35  0.001355  (-0.033539 -0.014467 -0.004599)
 43:    954.52   0.000319    1.61  0.000104  (-0.001051 -0.009722 -0.002967)
 44:    996.88   0.002050   10.36  0.000642  (-0.018488  0.017282 -0.001136)
 45:    998.42   0.004159   21.02  0.001300  (-0.034387  0.010718  0.001559)
 46:   1044.75   0.000402    2.03  0.000120  ( 0.006270  0.001490 -0.008860)
 47:   1053.06   0.000164    0.83  0.000049  (-0.000424  0.006945 -0.000574)
 48:   1067.49   0.000068    0.35  0.000020  (-0.002006  0.003188 -0.002403)
 49:   1078.95   0.002018   10.20  0.000584  (-0.023877  0.000345  0.003654)
 50:   1103.70   0.002592   13.10  0.000733  (-0.026248 -0.005407 -0.003834)
 51:   1112.05   0.000669    3.38  0.000188  ( 0.006907  0.011390 -0.003202)
 52:   1142.07   0.014388   72.71  0.003932  ( 0.060188 -0.016349  0.006458)
 53:   1171.95   0.001094    5.53  0.000291  ( 0.014251 -0.009385  0.000154)
 54:   1193.54   0.002198   11.11  0.000575  (-0.002899 -0.023786 -0.000625)
 55:   1260.62   0.015579   78.73  0.003856  (-0.028575 -0.049516  0.024251)
 56:   1287.97   0.021102  106.64  0.005113  (-0.061897  0.035463 -0.004896)
 57:   1304.04   0.041923  211.86  0.010032  (-0.034733  0.093822  0.004846)
 58:   1329.22   0.001359    6.87  0.000319  ( 0.002379 -0.016896  0.005294)
 59:   1357.27   0.008458   42.74  0.001945  (-0.009882 -0.042950  0.001533)
 60:   1364.44   0.032485  164.17  0.007430  (-0.077140 -0.036265 -0.012804)
 61:   1385.90   0.013870   70.09  0.003123  ( 0.055838 -0.001373  0.001808)
 62:   1433.16   0.014424   72.89  0.003141  ( 0.051803 -0.017972  0.011581)
 63:   1492.57   0.015401   77.83  0.003220  ( 0.056094  0.008568  0.000250)
 64:   1506.58   0.032138  162.41  0.006657  ( 0.021211  0.078769 -0.001522)
 65:   1520.17   0.033131  167.43  0.006801  (-0.073192  0.037995  0.000740)
 66:   1540.29   0.003302   16.69  0.000669  (-0.024149 -0.006207 -0.006872)
 67:   1658.67   0.045699  230.94  0.008598  (-0.089595 -0.023815  0.001817)
 68:   1670.22   0.083473  421.84  0.015596  ( 0.025859  0.121844  0.009024)
 69:   1673.92   0.004744   23.97  0.000884  (-0.029692 -0.000380  0.001594)
 70:   1692.81   0.028244  142.73  0.005207  (-0.028523 -0.060523 -0.027021)
 71:   1789.95   0.320049  1617.40  0.055798  ( 0.157283  0.175554  0.015517)
 72:   1803.34   0.007214   36.46  0.001248  ( 0.017757 -0.010760  0.028588)
 73:   1842.15   0.076757  387.90  0.013003  ( 0.099305  0.055359 -0.008765)
 74:   3026.97   0.012750   64.44  0.001314  ( 0.021037 -0.023737  0.017565)
 75:   3228.47   0.000236    1.19  0.000023  ( 0.003017  0.003621 -0.000781)
 76:   3234.30   0.000636    3.22  0.000061  (-0.005281  0.005690  0.001071)
 77:   3237.11   0.000845    4.27  0.000081  ( 0.005302  0.007156 -0.001452)
 78:   3247.02   0.000153    0.77  0.000015  (-0.003773  0.000213 -0.000660)
 79:   3247.82   0.000159    0.80  0.000015  ( 0.000750 -0.003822  0.000266)
 80:   3252.57   0.000725    3.66  0.000070  ( 0.005096 -0.006150 -0.002403)

--------------------------
THERMOCHEMISTRY AT 298.15K
--------------------------

Temperature         ... 298.15 K
Pressure            ... 1.00 atm
Total Mass          ... 261.16 AMU

Throughout the following assumptions are being made:
  (1) The electronic state is orbitally nondegenerate
  (2) There are no thermally accessible electronically excited states
  (3) Hindered rotations indicated by low frequency modes are not
      treated as such but are treated as vibrations and this may
      cause some error
  (4) All equations used are the standard statistical mechanics
      equations for an ideal gas
  (5) All vibrations are strictly harmonic

freq.      51.22  E(vib)   ...       0.52
freq.      58.86  E(vib)   ...       0.51
freq.      85.47  E(vib)   ...       0.48
freq.     108.67  E(vib)   ...       0.45
freq.     116.15  E(vib)   ...       0.44
freq.     159.92  E(vib)   ...       0.39
freq.     190.29  E(vib)   ...       0.36
freq.     215.52  E(vib)   ...       0.34
freq.     239.17  E(vib)   ...       0.31
freq.     264.71  E(vib)   ...       0.29
freq.     295.30  E(vib)   ...       0.27
freq.     318.13  E(vib)   ...       0.25
freq.     336.65  E(vib)   ...       0.24
freq.     356.96  E(vib)   ...       0.22
freq.     383.80  E(vib)   ...       0.20
freq.     386.27  E(vib)   ...       0.20
freq.     430.65  E(vib)   ...       0.18
freq.     448.53  E(vib)   ...       0.17
freq.     460.37  E(vib)   ...       0.16
freq.     491.04  E(vib)   ...       0.14
freq.     496.50  E(vib)   ...       0.14
freq.     517.10  E(vib)   ...       0.13
freq.     524.47  E(vib)   ...       0.13
freq.     554.72  E(vib)   ...       0.12
freq.     583.83  E(vib)   ...       0.11
freq.     624.71  E(vib)   ...       0.09
freq.     653.50  E(vib)   ...       0.08
freq.     682.30  E(vib)   ...       0.08
freq.     734.59  E(vib)   ...       0.06
freq.     757.28  E(vib)   ...       0.06
freq.     778.10  E(vib)   ...       0.05
freq.     787.70  E(vib)   ...       0.05
freq.     824.95  E(vib)   ...       0.04
freq.     840.19  E(vib)   ...       0.04
freq.     880.70  E(vib)   ...       0.04
freq.     890.90  E(vib)   ...       0.04
freq.     927.10  E(vib)   ...       0.03
freq.     954.52  E(vib)   ...       0.03
freq.     996.88  E(vib)   ...       0.02
freq.     998.42  E(vib)   ...       0.02
freq.    1044.75  E(vib)   ...       0.02
freq.    1053.06  E(vib)   ...       0.02
freq.    1067.49  E(vib)   ...       0.02
freq.    1078.95  E(vib)   ...       0.02
freq.    1103.70  E(vib)   ...       0.02
freq.    1112.05  E(vib)   ...       0.01
freq.    1142.07  E(vib)   ...       0.01
freq.    1171.95  E(vib)   ...       0.01
freq.    1193.54  E(vib)   ...       0.01
freq.    1260.62  E(vib)   ...       0.01
freq.    1287.97  E(vib)   ...       0.01
freq.    1304.04  E(vib)   ...       0.01
freq.    1329.22  E(vib)   ...       0.01
freq.    1357.27  E(vib)   ...       0.01
freq.    1364.44  E(vib)   ...       0.01
freq.    1385.90  E(vib)   ...       0.00
freq.    1433.16  E(vib)   ...       0.00
freq.    1492.57  E(vib)   ...       0.00
freq.    1506.58  E(vib)   ...       0.00
freq.    1520.17  E(vib)   ...       0.00
freq.    1540.29  E(vib)   ...       0.00
freq.    1658.67  E(vib)   ...       0.00
freq.    1670.22  E(vib)   ...       0.00
freq.    1673.92  E(vib)   ...       0.00
freq.    1692.81  E(vib)   ...       0.00
freq.    1789.95  E(vib)   ...       0.00
freq.    1803.34  E(vib)   ...       0.00
freq.    1842.15  E(vib)   ...       0.00
freq.    3026.97  E(vib)   ...       0.00
freq.    3228.47  E(vib)   ...       0.00
freq.    3234.30  E(vib)   ...       0.00
freq.    3237.11  E(vib)   ...       0.00
freq.    3247.02  E(vib)   ...       0.00
freq.    3247.82  E(vib)   ...       0.00
freq.    3252.57  E(vib)   ...       0.00

------------
INNER ENERGY
------------

The inner energy is: U= E(el) + E(ZPE) + E(vib) + E(rot) + E(trans)
    E(el)   - is the total energy from the electronic structure calculation
              = E(kin-el) + E(nuc-el) + E(el-el) + E(nuc-nuc)
    E(ZPE)  - the the zero temperature vibrational energy from the frequency calculation
    E(vib)  - the the finite temperature correction to E(ZPE) due to population
              of excited vibrational states
    E(rot)  - is the rotational thermal energy
    E(trans)- is the translational thermal energy

Summary of contributions to the inner energy U:
Electronic energy                ...   -907.86851994 Eh
Zero point energy                ...      0.18626579 Eh     116.88 kcal/mol
Thermal vibrational correction   ...      0.01228590 Eh       7.71 kcal/mol
Thermal rotational correction    ...      0.00141627 Eh       0.89 kcal/mol
Thermal translational correction ...      0.00141627 Eh       0.89 kcal/mol
-----------------------------------------------------------------------
Total thermal energy                   -907.66713570 Eh

Summary of corrections to the electronic energy:
(perhaps to be used in another calculation)
Total thermal correction                  0.01511844 Eh       9.49 kcal/mol
Non-thermal (ZPE) correction              0.18626579 Eh     116.88 kcal/mol
-----------------------------------------------------------------------
Total correction                          0.20138423 Eh     126.37 kcal/mol

--------
ENTHALPY
--------

The enthalpy is H = U + kB*T
                kB is Boltzmann's constant
Total free energy                 ...   -907.66713570 Eh
Thermal Enthalpy correction       ...      0.00094421 Eh       0.59 kcal/mol
-----------------------------------------------------------------------
Total Enthalpy                    ...   -907.66619149 Eh

Note: Only C1 symmetry has been detected, increase convergence thresholds
      if your molecule has a higher symmetry. Symmetry factor of 1.0 is
      used for the rotational entropy correction.

Note: Rotational entropy computed according to Herzberg
Infrared and Raman Spectra, Chapter V,1, Van Nostrand Reinhold, 1945
Point Group:  C1, Symmetry Number:   1
Rotational constants in cm-1:     0.017002     0.011455     0.007024

Vibrational entropy computed according to the QRRHO of S. Grimme
Chem.Eur.J. 2012 18 9955

-------
ENTROPY
-------

The entropy contributions are T*S = T*(S(el)+S(vib)+S(rot)+S(trans))
     S(el)   - electronic entropy
     S(vib)  - vibrational entropy
     S(rot)  - rotational entropy
     S(trans)- translational entropy
The entropies will be listed as multiplied by the temperature to get
units of energy

                             ****ORCA TERMINATED NORMALLY****
TOTAL RUN TIME: 0 days 0 hours 36 minutes 59 seconds 479 msec
