 ----------------------------------------------------------------------
 #p b3pw91 geom=allcheck guess=read chkbasis SCF=(novaracc,maxcycles=51
 2) Integral=(acc2e=12,grid=ultrafine) IRC=(calcfc,maxcycles=50,recorre
 ct=never)
 ----------------------------------------------------------------------

 Structure from the checkpoint file:  "H-N-IRC.chk"
 -----
 title
 -----
 Charge = -1 Multiplicity = 4

 SCF Done:  E(UB3PW91) =  -1102.19291322     A.U. after   81 cycles
 SCF Done:  E(UB3PW91) =  -1102.19293016     A.U. after   64 cycles
 SCF Done:  E(UB3PW91) =  -1102.19298269     A.U. after   69 cycles
 SCF Done:  E(UB3PW91) =  -1102.19307122     A.U. after  103 cycles
 SCF Done:  E(UB3PW91) =  -1102.19319516     A.U. after  116 cycles
 SCF Done:  E(UB3PW91) =  -1102.19335419     A.U. after  104 cycles
 SCF Done:  E(UB3PW91) =  -1102.19354797     A.U. after   90 cycles
 SCF Done:  E(UB3PW91) =  -1102.19377621     A.U. after   52 cycles
 SCF Done:  E(UB3PW91) =  -1102.19403869     A.U. after   93 cycles
 SCF Done:  E(UB3PW91) =  -1102.19433515     A.U. after   80 cycles
 SCF Done:  E(UB3PW91) =  -1102.19293244     A.U. after  144 cycles
 SCF Done:  E(UB3PW91) =  -1102.19298756     A.U. after   65 cycles
 SCF Done:  E(UB3PW91) =  -1102.19307823     A.U. after   53 cycles
 SCF Done:  E(UB3PW91) =  -1102.19320406     A.U. after   93 cycles
 SCF Done:  E(UB3PW91) =  -1102.19336477     A.U. after   52 cycles
 SCF Done:  E(UB3PW91) =  -1102.19356015     A.U. after   91 cycles
 SCF Done:  E(UB3PW91) =  -1102.19379010     A.U. after   85 cycles
 SCF Done:  E(UB3PW91) =  -1102.19405450     A.U. after   91 cycles
 SCF Done:  E(UB3PW91) =  -1102.19435315     A.U. after  100 cycles
 SCF Done:  E(UB3PW91) =  -1102.19468558     A.U. after   97 cycles

                          Input orientation:
 ---------------------------------------------------------------------
 Center     Atomic      Atomic             Coordinates (Angstroms)
 Number     Number       Type             X           Y           Z
 ---------------------------------------------------------------------
      1          8           0        0.612065    1.116584   -0.426545
      2         58           0        1.549762   -0.633538   -0.084591
      3         58           0       -1.544054    0.627800    0.074524
      4          8           0       -0.327253   -1.223646    0.393127
      5          1           0       -3.390963   -0.197953    1.112562
      6          1           0       -1.921723    2.693271    0.815412
 ---------------------------------------------------------------------

 Alpha  occ. eigenvalues --  -18.92625 -18.92483 -10.89262 -10.88976  -7.84457
 Alpha  occ. eigenvalues --   -7.83942  -7.83933  -7.83716  -7.83671  -7.83529
 Alpha  occ. eigenvalues --   -4.04324  -4.04221  -4.03986  -4.03950  -4.03912
 Alpha  occ. eigenvalues --   -4.03778  -4.02173  -4.01782  -4.01723  -4.01531
 Alpha  occ. eigenvalues --   -1.38396  -1.37616  -0.82012  -0.79941  -0.68914
 Alpha  occ. eigenvalues --   -0.68400  -0.68171  -0.67406  -0.59914  -0.58155
 Alpha  occ. eigenvalues --   -0.17984  -0.16837  -0.16784  -0.15473  -0.14339
 Alpha  occ. eigenvalues --   -0.14136  -0.06526  -0.05381  -0.04997  -0.04769
 Alpha  occ. eigenvalues --   -0.00851
 Alpha virt. eigenvalues --    0.07342   0.10360   0.10499   0.11525   0.11603
 Alpha virt. eigenvalues --    0.11761   0.11857   0.12243   0.12318   0.12633
 Alpha virt. eigenvalues --    0.12854   0.13255   0.13958   0.14129   0.14183

  Beta  occ. eigenvalues --  -18.92734 -18.92601 -10.85871 -10.85575  -7.81304
  Beta  occ. eigenvalues --   -7.80476  -7.80366  -7.80187  -7.79902  -7.79773
  Beta  occ. eigenvalues --   -4.01581  -4.01156  -4.01054  -4.00804  -3.98601
  Beta  occ. eigenvalues --   -3.98077  -3.97988  -3.97751  -3.97621  -3.97421
  Beta  occ. eigenvalues --   -1.36408  -1.35738  -0.81512  -0.79616  -0.67253
  Beta  occ. eigenvalues --   -0.66816  -0.66572  -0.66018  -0.58910  -0.57311
  Beta  occ. eigenvalues --   -0.17885  -0.16818  -0.16741  -0.15624  -0.14508
  Beta  occ. eigenvalues --   -0.13919  -0.06403  -0.05125
  Beta virt. eigenvalues --    0.05450   0.08290   0.12582   0.12772   0.13274
  Beta virt. eigenvalues --    0.13382   0.13617   0.13900   0.13933   0.14019
  Beta virt. eigenvalues --    0.14533   0.14620   0.15218   0.15265   0.15437

 Mulliken charges and spin densities:
               1          2
     1  O   -0.775099  -0.073198
     2  Ce   0.404942   2.150648
     3  Ce   1.312814   0.986387
     4  O   -0.788521  -0.046614
     5  H   -0.596888  -0.008243
     6  H   -0.557247  -0.008980
 Sum of Mulliken charges =  -1.00000   3.00000

 Dipole moment (field-independent basis, Debye):
    X=              5.5352    Y=             -2.8771    Z=             -4.9891  Tot=              7.9879
 Quadrupole moment (field-independent basis, Debye-Ang):
   XX=           -120.7911   YY=           -112.6395   ZZ=            -89.3660
   XY=              5.1772   XZ=             18.9061   YZ=             -3.4577

  Exact polarizability:   0.000   0.000   0.000   0.000   0.000   0.000
 Approx polarizability: 286.224 -28.319 226.297   4.376   8.452 225.213

 Normal termination of Gaussian DV at Fri Sep 14 20:48:13 2018.
