   * xtb version 6.6.0 (conda-forge) compiled by 'runner@Mac-1676020848589.local' on 2023-02-10
          program call               : xtb 2-Mercaptophenol.xyz --opt --gfn2

   ID    Z sym.   atoms
    1    6 C      1-6
    2    8 O      7
    3   16 S      8
    4    1 H      9-14

          :  Hamiltonian                  GFN2-xTB          :
 * total energy  :   -23.1895138 Eh     change       -0.1265157E-09 Eh
 * total energy  :   -23.1988295 Eh     change       -0.9315778E-02 Eh
 * total energy  :   -23.2013621 Eh     change       -0.2532519E-02 Eh
 * total energy  :   -23.2016473 Eh     change       -0.2852471E-03 Eh
 * total energy  :   -23.2017251 Eh     change       -0.7784267E-04 Eh
 * total energy  :   -23.2017485 Eh     change       -0.2340094E-04 Eh
 * total energy  :   -23.2017696 Eh     change       -0.2103340E-04 Eh
 * total energy  :   -23.2017988 Eh     change       -0.2919491E-04 Eh
 * total energy  :   -23.2018605 Eh     change       -0.6169144E-04 Eh
 * total energy  :   -23.2016297 Eh     change        0.2307208E-03 Eh
 * total energy  :   -23.2036824 Eh     change       -0.1514229E-03 Eh
 * total energy  :   -23.2037285 Eh     change       -0.4615139E-04 Eh
 * total energy  :   -23.2037820 Eh     change       -0.5342312E-04 Eh
 * total energy  :   -23.2038082 Eh     change       -0.2618843E-04 Eh
 * total energy  :   -23.2038326 Eh     change       -0.2443237E-04 Eh
 * total energy  :   -23.2038460 Eh     change       -0.1344700E-04 Eh
 * total energy  :   -23.2038499 Eh     change       -0.3893040E-05 Eh
 * total energy  :   -23.2038528 Eh     change       -0.2825403E-05 Eh
 * total energy  :   -23.2038550 Eh     change       -0.2250879E-05 Eh
   *** GEOMETRY OPTIMIZATION CONVERGED AFTER 37 ITERATIONS ***

 final structure:
================
14
 xtb: 6.6.0 (conda-forge)
C           -1.66410016427524        0.77729233656809       -0.18382417800789
C           -1.16110448946558        0.66897642626556        1.10151462742085
C            0.08030800224943        0.09679731505672        1.31023622662352
C            0.82214564852750       -0.36807877501732        0.23610109180874
C            0.32149292562971       -0.26105164881805       -1.06455455177187
C           -0.92853323096513        0.31606720119768       -1.25860964654161
O            1.00345970082236       -0.69734836747553       -2.15086804404557
S            2.42634412812206       -1.11241914842923        0.46694083812816
H           -2.63260896812260        1.22236858661140       -0.35136290949347
H           -1.73021822663101        1.02767303320297        1.94500036792008
H            0.47505048199024        0.01102339211862        2.31272518451551
H           -1.29947551748354        0.38955045829006       -2.26828414431385
H            1.85296134695457       -1.07323461327524       -1.88550939100203
H            2.43417836264730       -0.99751619629583        1.79029452875958

          :  Hamiltonian                  GFN2-xTB          :
         :: total energy             -23.203855001722 Eh    ::
         :: gradient norm              0.000548091844 Eh/a0 ::
         :: HOMO-LUMO gap              3.753111308103 eV    ::
         :: SCC energy               -23.528447729781 Eh    ::
         :: -> dispersion             -0.012049890930 Eh    ::
         :: repulsion energy           0.324568803561 Eh    ::

    * Orbital Energies and Occupations

         #    Occupation            Energy/Eh            Energy/eV
      -------------------------------------------------------------
         1        2.0000           -0.7285951             -19.8261
       ...           ...                  ...                  ...
         9        2.0000           -0.5436039             -14.7922
        10        2.0000           -0.5321049             -14.4793
        11        2.0000           -0.5207061             -14.1691
        12        2.0000           -0.5092157             -13.8565
        13        2.0000           -0.4917752             -13.3819
        14        2.0000           -0.4878303             -13.2745
        15        2.0000           -0.4809878             -13.0883
        16        2.0000           -0.4732299             -12.8772
        17        2.0000           -0.4445236             -12.0961
        18        2.0000           -0.4335501             -11.7975
        19        2.0000           -0.4333682             -11.7925
        20        2.0000           -0.3991785             -10.8622
        21        2.0000           -0.3732208             -10.1559 (HOMO)
        22                         -0.2352965              -6.4027 (LUMO)
        23                         -0.2238968              -6.0925
        24                         -0.2143816              -5.8336
        25                         -0.1325368              -3.6065
        26                         -0.1068243              -2.9068
        27                         -0.0294513              -0.8014
        28                         -0.0243173              -0.6617
        29                          0.0304098               0.8275
        30                          0.0748600               2.0370
        31                          0.1348747               3.6701
        32                          0.1443796               3.9288
       ...                                ...                  ...
        43                          0.6556477              17.8411
      -------------------------------------------------------------
                  HL-Gap            0.1379243 Eh            3.7531 eV

     #   Z          covCN         q      C6AA      α(0)
     1   6 C        2.919    -0.034    28.843     8.807
     2   6 C        2.920    -0.041    29.023     8.835
     3   6 C        2.949    -0.042    29.048     8.840
     4   6 C        2.966     0.018    27.613     8.619
     5   6 C        2.886     0.143    24.887     8.179
     6   6 C        2.921    -0.054    29.338     8.882
     7   8 O        1.660    -0.379    20.441     6.103
     8  16 S        1.970    -0.263   152.375    20.776
     9   1 H        0.926     0.042     2.425     2.435
    10   1 H        0.926     0.039     2.464     2.455
    11   1 H        0.926     0.034     2.536     2.491
    12   1 H        0.926     0.057     2.236     2.339
    13   1 H        0.805     0.314     0.681     1.297
    14   1 H        0.923     0.168     1.279     1.768

Wiberg/Mayer (AO) data.
largest (>0.10) Wiberg bond orders for each atom

     #   Z sym  total        # sym  WBO       # sym  WBO       # sym  WBO
 ---------------------------------------------------------------------------
     1   6 C    3.992 --     6 C    1.448     2 C    1.427     9 H    0.970
     2   6 C    3.991 --     3 C    1.437     1 C    1.427    10 H    0.969
     3   6 C    3.989 --     2 C    1.437     4 C    1.406    11 H    0.966
                             6 C    0.102
     4   6 C    3.952 --     3 C    1.406     5 C    1.328     8 S    1.024
     5   6 C    3.943 --     6 C    1.368     4 C    1.328     7 O    1.088
     6   6 C    3.987 --     1 C    1.448     5 C    1.368    12 H    0.966
                             3 C    0.102
     7   8 O    2.142 --     5 C    1.088    13 H    0.876
     8  16 S    2.152 --     4 C    1.024    14 H    0.952
     9   1 H    0.997 --     1 C    0.970
    10   1 H    0.998 --     2 C    0.969
    11   1 H    0.999 --     3 C    0.966
    12   1 H    0.997 --     6 C    0.966
    13   1 H    0.902 --     7 O    0.876
    14   1 H    0.972 --     8 S    0.952
 ---------------------------------------------------------------------------

molecular dipole:
                 x           y           z       tot (Debye)
 q only:       -0.100       0.090       0.445
   full:       -0.090       0.120       0.805       2.081

           -------------------------------------------------
          | TOTAL ENERGY              -23.203855001722 Eh   |
          | GRADIENT NORM               0.000548091844 Eh/α |
          | HOMO-LUMO GAP               3.753111308103 eV   |
           -------------------------------------------------

 * finished run on 2024/09/17 at 17:34:27.634
