   * xtb version 6.6.0 (conda-forge) compiled by 'runner@Mac-1676020848589.local' on 2023-02-10
          program call               : xtb 4-Mercaptophenol.xyz --opt --chrg 0 --gfn2

   ID    Z sym.   atoms
    1    6 C      1-6
    2    8 O      7
    3   16 S      8
    4    1 H      9-14

          :  Hamiltonian                  GFN2-xTB          :
 * total energy  :   -23.1898984 Eh     change       -0.5620286E-09 Eh
 * total energy  :   -23.1979995 Eh     change       -0.8101062E-02 Eh
 * total energy  :   -23.1996574 Eh     change       -0.1657857E-02 Eh
 * total energy  :   -23.1997842 Eh     change       -0.1268282E-03 Eh
 * total energy  :   -23.1998104 Eh     change       -0.2621058E-04 Eh
 * total energy  :   -23.1998197 Eh     change       -0.9334845E-05 Eh
 * total energy  :   -23.1998268 Eh     change       -0.7116611E-05 Eh
 * total energy  :   -23.1998369 Eh     change       -0.1009176E-04 Eh
 * total energy  :   -23.1998520 Eh     change       -0.1503686E-04 Eh
 * total energy  :   -23.1998732 Eh     change       -0.2124181E-04 Eh
 * total energy  :   -23.2035746 Eh     change       -0.8836283E-04 Eh
 * total energy  :   -23.2037740 Eh     change       -0.1994501E-03 Eh
 * total energy  :   -23.2038541 Eh     change       -0.8007454E-04 Eh
 * total energy  :   -23.2038855 Eh     change       -0.3135993E-04 Eh
 * total energy  :   -23.2039813 Eh     change       -0.9584775E-04 Eh
 * total energy  :   -23.2040120 Eh     change       -0.3068515E-04 Eh
 * total energy  :   -23.2040182 Eh     change       -0.6165329E-05 Eh
 * total energy  :   -23.2040589 Eh     change       -0.4069238E-04 Eh
 * total energy  :   -23.2040621 Eh     change       -0.3235793E-05 Eh
   *** GEOMETRY OPTIMIZATION CONVERGED AFTER 41 ITERATIONS ***

 final structure:
================
14
 xtb: 6.6.0 (conda-forge)
C           -0.84264727645255        0.58442026799919        1.00072049989829
C            0.49854744048541        0.90632407804636        0.92869360348349
C            1.30003174294627        0.33201559671150       -0.04815016344856
C            0.74980768339063       -0.56533992353545       -0.95415475300615
C           -0.58993162225818       -0.88658375888464       -0.88225514318454
C           -1.39702473520111       -0.31495519780737        0.09695627775161
O           -2.71174461149526       -0.66230404393899        0.13197265459554
S            3.01375355041121        0.77393750152643       -0.09842099959944
H           -1.46302397086805        1.03428979259006        1.76440493033248
H            0.92857096158286        1.60410016654825        1.63062659098444
H            1.36708013210367       -1.01548633022832       -1.71810975652034
H           -1.03030416755801       -1.58170431993212       -1.57872358388649
H           -3.15267779375987       -0.20310061224250        0.85706553301636
H            3.32956266667289       -0.00551321685232       -1.13042569041672

          :  Hamiltonian                  GFN2-xTB          :
         :: total energy             -23.204062100669 Eh    ::
         :: gradient norm              0.000482133832 Eh/a0 ::
         :: HOMO-LUMO gap              3.556237807600 eV    ::
         :: SCC energy               -23.529293655426 Eh    ::
         :: -> dispersion             -0.011792737039 Eh    ::
         :: repulsion energy           0.325222366050 Eh    ::

    * Orbital Energies and Occupations

         #    Occupation            Energy/Eh            Energy/eV
      -------------------------------------------------------------
         1        2.0000           -0.7181976             -19.5432
       ...           ...                  ...                  ...
         9        2.0000           -0.5455698             -14.8457
        10        2.0000           -0.5305181             -14.4361
        11        2.0000           -0.5185009             -14.1091
        12        2.0000           -0.5029715             -13.6866
        13        2.0000           -0.4974301             -13.5358
        14        2.0000           -0.4903393             -13.3428
        15        2.0000           -0.4793933             -13.0450
        16        2.0000           -0.4739893             -12.8979
        17        2.0000           -0.4468063             -12.1582
        18        2.0000           -0.4339916             -11.8095
        19        2.0000           -0.4170186             -11.3477
        20        2.0000           -0.4130650             -11.2401
        21        2.0000           -0.3657960              -9.9538 (HOMO)
        22                         -0.2351067              -6.3976 (LUMO)
        23                         -0.2257441              -6.1428
        24                         -0.2024548              -5.5091
        25                         -0.1178787              -3.2076
        26                         -0.1062978              -2.8925
        27                         -0.0169473              -0.4612
        28                         -0.0128729              -0.3503
        29                          0.0409906               1.1154
        30                          0.0633497               1.7238
        31                          0.1221914               3.3250
        32                          0.1414500               3.8490
       ...                                ...                  ...
        43                          0.6565973              17.8669
      -------------------------------------------------------------
                  HL-Gap            0.1306893 Eh            3.5562 eV

     #   Z          covCN         q      C6AA      α(0)
     1   6 C        2.919    -0.068    29.697     8.936
     2   6 C        2.970    -0.037    28.922     8.821
     3   6 C        2.967     0.048    26.911     8.509
     4   6 C        2.951    -0.042    29.043     8.839
     5   6 C        2.921    -0.052    29.293     8.875
     6   6 C        2.846     0.142    24.893     8.177
     7   8 O        1.660    -0.390    20.648     6.134
     8  16 S        1.980    -0.243   151.464    20.714
     9   1 H        0.925     0.033     2.545     2.495
    10   1 H        0.926     0.047     2.363     2.404
    11   1 H        0.926     0.039     2.468     2.456
    12   1 H        0.926     0.056     2.246     2.343
    13   1 H        0.805     0.301     0.719     1.332
    14   1 H        0.923     0.166     1.288     1.775

Wiberg/Mayer (AO) data.
largest (>0.10) Wiberg bond orders for each atom

     #   Z sym  total        # sym  WBO       # sym  WBO       # sym  WBO
 ---------------------------------------------------------------------------
     1   6 C    3.988 --     2 C    1.453     6 C    1.369     9 H    0.966
                             4 C    0.102
     2   6 C    3.991 --     1 C    1.453     3 C    1.391    10 H    0.969
                             5 C    0.106
     3   6 C    3.960 --     2 C    1.391     4 C    1.385     8 S    1.039
     4   6 C    3.990 --     5 C    1.461     3 C    1.385    11 H    0.966
                             1 C    0.102
     5   6 C    3.988 --     4 C    1.461     6 C    1.359    12 H    0.966
                             2 C    0.106
     6   6 C    3.940 --     1 C    1.369     5 C    1.359     7 O    1.073
     7   8 O    2.117 --     6 C    1.073    13 H    0.889
     8  16 S    2.152 --     3 C    1.039    14 H    0.956
     9   1 H    0.999 --     1 C    0.966
    10   1 H    0.998 --     2 C    0.969
    11   1 H    0.999 --     4 C    0.966
    12   1 H    0.997 --     5 C    0.966
    13   1 H    0.909 --     7 O    0.889
    14   1 H    0.972 --     8 S    0.956
 ---------------------------------------------------------------------------

molecular dipole:
                 x           y           z       tot (Debye)
 q only:       -0.337      -0.082       0.031
   full:       -0.564      -0.081       0.114       1.477

           -------------------------------------------------
          | TOTAL ENERGY              -23.204062100669 Eh   |
          | GRADIENT NORM               0.000482133832 Eh/α |
          | HOMO-LUMO GAP               3.556237807600 eV   |
           -------------------------------------------------

 * finished run on 2024/09/17 at 17:31:52.382
