   * xtb version 6.6.0 (conda-forge) compiled by 'runner@Mac-1676020848589.local' on 2023-02-10
          program call               : xtb acetaminophen.xyz --opt --gfn2

   ID    Z sym.   atoms
    1    6 C      1, 2, 5-10
    2    8 O      3, 11
    3    7 N      4
    4    1 H      12-20

          :  Hamiltonian                  GFN2-xTB          :
 * total energy  :   -32.7596407 Eh     change       -0.4622080E-09 Eh
 * total energy  :   -32.7758384 Eh     change       -0.1619764E-01 Eh
 * total energy  :   -32.7798058 Eh     change       -0.3967400E-02 Eh
 * total energy  :   -32.7806389 Eh     change       -0.8330845E-03 Eh
 * total energy  :   -32.7810942 Eh     change       -0.4553779E-03 Eh
 * total energy  :   -32.7814311 Eh     change       -0.3368862E-03 Eh
 * total energy  :   -32.7818044 Eh     change       -0.3732995E-03 Eh
 * total energy  :   -32.7822381 Eh     change       -0.4337112E-03 Eh
 * total energy  :   -32.7826129 Eh     change       -0.3748090E-03 Eh
 * total energy  :   -32.7828469 Eh     change       -0.2339424E-03 Eh
 * total energy  :   -32.7833607 Eh     change       -0.1075680E-03 Eh
 * total energy  :   -32.7834560 Eh     change       -0.9525642E-04 Eh
 * total energy  :   -32.7835045 Eh     change       -0.4849958E-04 Eh
 * total energy  :   -32.7835429 Eh     change       -0.3835162E-04 Eh
 * total energy  :   -32.7835382 Eh     change        0.4616253E-05 Eh
 * total energy  :   -32.7835705 Eh     change       -0.3231227E-04 Eh
 * total energy  :   -32.7835868 Eh     change       -0.1623750E-04 Eh
 * total energy  :   -32.7836020 Eh     change       -0.1517321E-04 Eh
 * total energy  :   -32.7836068 Eh     change       -0.4851149E-05 Eh
   *** GEOMETRY OPTIMIZATION CONVERGED AFTER 22 ITERATIONS ***

 final structure:
================
20
 xtb: 6.6.0 (conda-forge)
C            3.69775814355472       -0.09741379382813       -0.10248896967509
C            2.31088553936564        0.46357495471784       -0.35316248358482
O            2.11550295118962        1.50760169493708       -0.93178320760119
N            1.33183651790098       -0.34016648565374        0.15267645965251
C           -0.05861400627406       -0.17360767726340        0.11131696917072
C           -0.85333408945174       -1.17990235712324        0.65809516524258
C           -2.22835009800983       -1.07946780529996        0.64633274300881
C           -2.83904866022458        0.03695237822358        0.08395476151909
C           -2.04882861290255        1.04252042740966       -0.45830501758872
C           -0.67040254218415        0.94327197457957       -0.44679373930645
O           -4.19951836152245        0.10104781227999        0.08702978522700
H            3.77701133931050       -1.11135530845380       -0.48845012613204
H            3.90450460102534       -0.10986121148704        0.96600994261490
H            4.43040407621048        0.53358790371830       -0.59680434389960
H            1.63282396639984       -1.18994628756661        0.60986479252468
H           -0.38817221901440       -2.05149654093824        1.09743180862149
H           -2.84610437741370       -1.85638830779943        1.06702175658591
H           -2.51590669666810        1.91491887954697       -0.89565493988224
H           -0.06606839207114        1.72669821518807       -0.87108133114872
H           -4.48647907922047        0.91953153481244       -0.33521002534880

          :  Hamiltonian                  GFN2-xTB          :
         :: total energy             -32.783606809676 Eh    ::
         :: gradient norm              0.000454217302 Eh/a0 ::
         :: HOMO-LUMO gap              3.749956049809 eV    ::
         :: SCC energy               -33.247308446850 Eh    ::
         :: -> dispersion             -0.016032193565 Eh    ::
         :: repulsion energy           0.463746323371 Eh    ::

    * Orbital Energies and Occupations

         #    Occupation            Energy/Eh            Energy/eV
      -------------------------------------------------------------
         1        2.0000           -0.7104167             -19.3314
       ...           ...                  ...                  ...
        17        2.0000           -0.4998165             -13.6007
        18        2.0000           -0.4920529             -13.3894
        19        2.0000           -0.4916177             -13.3776
        20        2.0000           -0.4839412             -13.1687
        21        2.0000           -0.4814708             -13.1015
        22        2.0000           -0.4747377             -12.9183
        23        2.0000           -0.4743067             -12.9065
        24        2.0000           -0.4606218             -12.5342
        25        2.0000           -0.4322851             -11.7631
        26        2.0000           -0.4293509             -11.6832
        27        2.0000           -0.4091564             -11.1337
        28        2.0000           -0.3937638             -10.7149
        29        2.0000           -0.3706046             -10.0847 (HOMO)
        30                         -0.2327962              -6.3347 (LUMO)
        31                         -0.2269563              -6.1758
        32                         -0.1863886              -5.0719
        33                         -0.0857037              -2.3321
        34                          0.0083291               0.2266
        35                          0.0699380               1.9031
        36                          0.0864325               2.3519
        37                          0.1279404               3.4814
        38                          0.1515283               4.1233
        39                          0.1537009               4.1824
        40                          0.1645776               4.4784
       ...                                ...                  ...
        53                          0.6782852              18.4571
      -------------------------------------------------------------
                  HL-Gap            0.1378083 Eh            3.7500 eV

     #   Z          covCN         q      C6AA      α(0)
     1   6 C        3.758    -0.145    23.359     6.891
     2   6 C        2.745     0.280    22.252     7.724
     3   8 O        0.858    -0.415    21.989     6.287
     4   7 N        2.697    -0.163    24.528     7.356
     5   6 C        2.904     0.064    26.556     8.450
     6   6 C        2.926    -0.055    29.374     8.888
     7   6 C        2.919    -0.053    29.313     8.878
     8   6 C        2.845     0.140    24.945     8.185
     9   6 C        2.920    -0.068    29.702     8.937
    10   6 C        2.920    -0.048    29.184     8.859
    11   8 O        1.659    -0.393    20.712     6.144
    12   1 H        0.925     0.054     2.273     2.358
    13   1 H        0.925     0.058     2.223     2.332
    14   1 H        0.925     0.073     2.055     2.242
    15   1 H        0.860     0.174     1.248     1.750
    16   1 H        0.925     0.032     2.564     2.504
    17   1 H        0.926     0.053     2.284     2.363
    18   1 H        0.925     0.034     2.531     2.488
    19   1 H        0.926     0.080     1.983     2.202
    20   1 H        0.805     0.300     0.722     1.334

Wiberg/Mayer (AO) data.
largest (>0.10) Wiberg bond orders for each atom

     #   Z sym  total        # sym  WBO       # sym  WBO       # sym  WBO
 ---------------------------------------------------------------------------
     1   6 C    3.993 --    14 H    0.983     2 C    0.978    12 H    0.973
                            13 H    0.969
     2   6 C    3.947 --     3 O    1.713     4 N    1.199     1 C    0.978
     3   8 O    2.029 --     2 C    1.713     4 N    0.168
     4   7 N    3.488 --     2 C    1.199     5 C    1.067    15 H    0.937
                             3 O    0.168
     5   6 C    3.961 --    10 C    1.373     6 C    1.361     4 N    1.067
     6   6 C    3.989 --     7 C    1.469     5 C    1.361    16 H    0.967
                             9 C    0.102
     7   6 C    3.988 --     6 C    1.469     8 C    1.357    17 H    0.968
                            10 C    0.105
     8   6 C    3.939 --     9 C    1.374     7 C    1.357    11 O    1.068
     9   6 C    3.988 --    10 C    1.452     8 C    1.374    18 H    0.966
                             6 C    0.102
    10   6 C    3.986 --     9 C    1.452     5 C    1.373    19 H    0.959
                             7 C    0.105
    11   8 O    2.111 --     8 C    1.068    20 H    0.889
    12   1 H    0.997 --     1 C    0.973
    13   1 H    0.996 --     1 C    0.969
    14   1 H    0.994 --     1 C    0.983
    15   1 H    0.969 --     4 N    0.937
    16   1 H    0.999 --     6 C    0.967
    17   1 H    0.997 --     7 C    0.968
    18   1 H    0.998 --     9 C    0.966
    19   1 H    0.994 --    10 C    0.959
    20   1 H    0.910 --    11 O    0.889
 ---------------------------------------------------------------------------

molecular dipole:
                 x           y           z       tot (Debye)
 q only:        0.073      -0.728       0.431
   full:        0.190      -0.850       0.499       2.551

           -------------------------------------------------
          | TOTAL ENERGY              -32.783606809676 Eh   |
          | GRADIENT NORM               0.000454217302 Eh/α |
          | HOMO-LUMO GAP               3.749956049809 eV   |
           -------------------------------------------------

 * finished run on 2024/09/17 at 17:30:50.556
