   * xtb version 6.6.0 (conda-forge) compiled by 'runner@Mac-1676020848589.local' on 2023-02-10
          program call               : xtb salicylic_acid.xyz --opt --gfn2

   ID    Z sym.   atoms
    1    6 C      1-7
    2    8 O      8-10
    3    1 H      11-16

          :  Hamiltonian                  GFN2-xTB          :
 * total energy  :   -30.2235371 Eh     change       -0.8922250E-09 Eh
 * total energy  :   -30.2417567 Eh     change       -0.1821959E-01 Eh
 * total energy  :   -30.2471461 Eh     change       -0.5389401E-02 Eh
 * total energy  :   -30.2484127 Eh     change       -0.1266612E-02 Eh
 * total energy  :   -30.2492585 Eh     change       -0.8457242E-03 Eh
 * total energy  :   -30.2498722 Eh     change       -0.6137299E-03 Eh
 * total energy  :   -30.2500874 Eh     change       -0.2152588E-03 Eh
 * total energy  :   -30.2503150 Eh     change       -0.2275927E-03 Eh
 * total energy  :   -30.2504232 Eh     change       -0.1081372E-03 Eh
 * total energy  :   -30.2505281 Eh     change       -0.1049617E-03 Eh
 * total energy  :   -30.2509064 Eh     change       -0.1076184E-03 Eh
 * total energy  :   -30.2509475 Eh     change       -0.4105948E-04 Eh
 * total energy  :   -30.2509813 Eh     change       -0.3379783E-04 Eh
 * total energy  :   -30.2510075 Eh     change       -0.2616951E-04 Eh
 * total energy  :   -30.2510354 Eh     change       -0.2794325E-04 Eh
 * total energy  :   -30.2510528 Eh     change       -0.1742092E-04 Eh
 * total energy  :   -30.2510548 Eh     change       -0.1944974E-05 Eh
 * total energy  :   -30.2510624 Eh     change       -0.7677783E-05 Eh
 * total energy  :   -30.2510641 Eh     change       -0.1614295E-05 Eh
   *** GEOMETRY OPTIMIZATION CONVERGED AFTER 22 ITERATIONS ***

 final structure:
================
16
 xtb: 6.6.0 (conda-forge)
C           -1.91356218001734       -0.69916550549698       -0.59982957675591
C           -2.20132887379484        0.58807031683977       -0.15950834564629
C           -1.19832874944164        1.39860971205153        0.32280584420084
C            0.12424026252449        0.95162166264964        0.38255363213348
C            0.42016945156816       -0.34963146109070       -0.06058149323768
C           -0.61759999689432       -1.15503345993472       -0.54791842757865
C            1.75931114144599       -0.95583891230911       -0.05600422217937
O            2.01237457333396       -2.07109291342609       -0.43610003038634
O            2.75335713515841       -0.15617958602479        0.42235642441260
O            1.03352747522072        1.81255554509249        0.86745462885404
H           -2.69922456936874       -1.33399790191882       -0.97808505546345
H           -3.21507387671962        0.95782840891663       -0.19473211811862
H           -1.40270079260595        2.39983556125669        0.66796068293319
H           -0.36072402518443       -2.14898340243339       -0.88138421378853
H            3.59263355669146       -0.64076964865729        0.38502732676130
H            1.91282946808371        1.40217158448518        0.86598494385939

          :  Hamiltonian                  GFN2-xTB          :
         :: total energy             -30.251064063931 Eh    ::
         :: gradient norm              0.000370105323 Eh/a0 ::
         :: HOMO-LUMO gap              3.232200922363 eV    ::
         :: SCC energy               -30.636283430730 Eh    ::
         :: -> dispersion             -0.013191954042 Eh    ::
         :: repulsion energy           0.385191593742 Eh    ::

    * Orbital Energies and Occupations

         #    Occupation            Energy/Eh            Energy/eV
      -------------------------------------------------------------
         1        2.0000           -0.7542707             -20.5248
       ...           ...                  ...                  ...
        14        2.0000           -0.5441019             -14.8058
        15        2.0000           -0.5364990             -14.5989
        16        2.0000           -0.5231799             -14.2364
        17        2.0000           -0.5049777             -13.7411
        18        2.0000           -0.4923332             -13.3971
        19        2.0000           -0.4879003             -13.2764
        20        2.0000           -0.4860546             -13.2262
        21        2.0000           -0.4731633             -12.8754
        22        2.0000           -0.4540397             -12.3550
        23        2.0000           -0.4384625             -11.9312
        24        2.0000           -0.4264258             -11.6036
        25        2.0000           -0.4226999             -11.5023
        26        2.0000           -0.3981592             -10.8345 (HOMO)
        27                         -0.2793780              -7.6023 (LUMO)
        28                         -0.2297648              -6.2522
        29                         -0.1948757              -5.3028
        30                         -0.0934091              -2.5418
        31                          0.0267309               0.7274
        32                          0.0850389               2.3140
        33                          0.1104265               3.0049
        34                          0.1370784               3.7301
        35                          0.1555400               4.2325
        36                          0.1692270               4.6049
        37                          0.1739749               4.7341
       ...                                ...                  ...
        46                          0.6707881              18.2531
      -------------------------------------------------------------
                  HL-Gap            0.1187812 Eh            3.2322 eV

     #   Z          covCN         q      C6AA      α(0)
     1   6 C        2.916    -0.039    28.958     8.824
     2   6 C        2.920    -0.020    28.510     8.756
     3   6 C        2.919    -0.053    29.320     8.880
     4   6 C        2.842     0.162    24.498     8.112
     5   6 C        2.967    -0.062    29.527     8.913
     6   6 C        2.929    -0.021    28.540     8.761
     7   6 C        2.699     0.352    21.018     7.504
     8   8 O        0.857    -0.415    21.979     6.286
     9   8 O        1.658    -0.409    21.019     6.189
    10   8 O        1.660    -0.378    20.426     6.101
    11   1 H        0.926     0.046     2.376     2.411
    12   1 H        0.926     0.048     2.346     2.395
    13   1 H        0.926     0.060     2.198     2.318
    14   1 H        0.926     0.066     2.124     2.279
    15   1 H        0.804     0.329     0.640     1.257
    16   1 H        0.804     0.333     0.629     1.246

Wiberg/Mayer (AO) data.
largest (>0.10) Wiberg bond orders for each atom

     #   Z sym  total        # sym  WBO       # sym  WBO       # sym  WBO
 ---------------------------------------------------------------------------
     1   6 C    3.991 --     6 C    1.485     2 C    1.391    11 H    0.970
     2   6 C    3.991 --     3 C    1.480     1 C    1.391    12 H    0.970
     3   6 C    3.988 --     2 C    1.480     4 C    1.343    13 H    0.967
                             6 C    0.108
     4   6 C    3.945 --     3 C    1.343     5 C    1.310    10 O    1.129
     5   6 C    3.978 --     6 C    1.352     4 C    1.310     7 C    1.047
     6   6 C    3.987 --     1 C    1.485     5 C    1.352    14 H    0.965
                             3 C    0.108
     7   6 C    3.914 --     8 O    1.735     9 O    1.069     5 C    1.047
     8   8 O    2.039 --     7 C    1.735     9 O    0.155
     9   8 O    2.168 --     7 C    1.069    15 H    0.863     8 O    0.155
    10   8 O    2.173 --     4 C    1.129    16 H    0.840
    11   1 H    0.997 --     1 C    0.970
    12   1 H    0.997 --     2 C    0.970
    13   1 H    0.996 --     3 C    0.967
    14   1 H    0.996 --     6 C    0.965
    15   1 H    0.891 --     9 O    0.863
    16   1 H    0.889 --    10 O    0.840
 ---------------------------------------------------------------------------

molecular dipole:
                 x           y           z       tot (Debye)
 q only:       -0.204       0.539       0.170
   full:        0.099       0.408       0.174       1.156

           -------------------------------------------------
          | TOTAL ENERGY              -30.251064063931 Eh   |
          | GRADIENT NORM               0.000370105323 Eh/α |
          | HOMO-LUMO GAP               3.232200922363 eV   |
           -------------------------------------------------

 * finished run on 2024/09/17 at 17:36:05.672
