 Gaussian 16, Revision C.02,
 Gaussian 16:  ES64L-G16RevC.02  7-Dec-2021

 -------------------------------------------
 # hf/3-21g opt=(ts,noeigentest,calcfc) freq
 -------------------------------------------

 -------------------
 Title Card Required
 -------------------
 Symbolic Z-matrix:
 Charge = -1 Multiplicity = 1

 SCF Done:  E(RHF) =  -3056.59468182     A.U. after   11 cycles
 SCF Done:  E(RHF) =  -3056.67006347     A.U. after   11 cycles
 SCF Done:  E(RHF) =  -3056.72363180     A.U. after   10 cycles
 SCF Done:  E(RHF) =  -3056.75907373     A.U. after   10 cycles
 SCF Done:  E(RHF) =  -3056.78326020     A.U. after   10 cycles
 SCF Done:  E(RHF) =  -3056.79642722     A.U. after   10 cycles
 SCF Done:  E(RHF) =  -3056.80087798     A.U. after   10 cycles
 SCF Done:  E(RHF) =  -3056.80271954     A.U. after   10 cycles
 SCF Done:  E(RHF) =  -3056.80444638     A.U. after   10 cycles
 SCF Done:  E(RHF) =  -3056.80520150     A.U. after    9 cycles
 SCF Done:  E(RHF) =  -3056.80529735     A.U. after    9 cycles
 SCF Done:  E(RHF) =  -3056.80530430     A.U. after    9 cycles
 SCF Done:  E(RHF) =  -3056.80530363     A.U. after    8 cycles
 SCF Done:  E(RHF) =  -3056.80530356     A.U. after    8 cycles
 Optimization completed.
    -- Stationary point found.
 Normal termination of Gaussian 16 at Wed Aug 28 11:22:48 2024.

 --------------------------------------------------------------
 #N Geom=AllCheck Guess=TCheck SCRF=Check GenChk RHF/3-21G Freq
 --------------------------------------------------------------

 Structure from the checkpoint file:  "example1.chk"
 -------------------
 Title Card Required
 -------------------
 Charge = -1 Multiplicity = 1

                         Standard orientation:
 ---------------------------------------------------------------------
 Center     Atomic      Atomic             Coordinates (Angstroms)
 Number     Number       Type             X           Y           Z
 ---------------------------------------------------------------------
      1          6           0        0.858763   -0.000194    0.000000
      2          1           0        0.803896    0.529503   -0.917269
      3          1           0        0.803896    0.529847    0.917070
      4          1           0        0.803902   -1.059459    0.000199
      5         17           0        3.165832    0.000040   -0.000000
      6         35           0       -1.753812    0.000017   -0.000000
 ---------------------------------------------------------------------

 SCF Done:  E(RHF) =  -3056.80530356     A.U. after    1 cycles

 The electronic state is 1-A.
 Alpha  occ. eigenvalues -- -486.49278-103.86114 -64.50639 -57.69232 -57.69173
 Alpha  occ. eigenvalues --  -57.69173 -11.12119 -10.25091  -9.49960  -7.71418
 Alpha  occ. eigenvalues --   -7.71248  -7.71248  -7.07619  -7.07329  -7.07329
 Alpha  occ. eigenvalues --   -2.80440  -2.80320  -2.80319  -2.79995  -2.79995
 Alpha  occ. eigenvalues --   -0.86875  -0.79125  -0.70809  -0.49294  -0.49284
 Alpha  occ. eigenvalues --   -0.27553  -0.23563  -0.23563  -0.16923  -0.16923
 Alpha  occ. eigenvalues --   -0.15554
 Alpha virt. eigenvalues --    0.27303   0.41243   0.47525   0.47529   0.90295
 Alpha virt. eigenvalues --    0.98108   0.98116   1.00196   1.04510   1.04514
 Alpha virt. eigenvalues --    1.09252   1.13194   1.13201   1.14223   1.39152

 Mulliken charges:
               1
     1  C   -0.421956
     2  H    0.283283
     3  H    0.283283
     4  H    0.283280
     5  Cl  -0.673202
     6  Br  -0.754689
 Sum of Mulliken charges =  -1.00000

 Dipole moment (field-independent basis, Debye):
    X=             -2.3745    Y=             -0.0003    Z=              0.0000  Tot=              2.3745
 Quadrupole moment (field-independent basis, Debye-Ang):
   XX=            -87.0837   YY=            -41.4166   ZZ=            -41.4187
   XY=             -0.0005   XZ=              0.0000   YZ=             -0.0000

  Exact polarizability:      89.775       0.000      14.598       0.000       0.000      14.595
 Approx polarizability:      60.318       0.000      11.736       0.000      -0.000      11.734

 ******    1 imaginary frequencies (negative Signs) ******

                      1                      2                      3
                      A                      A                      A
 Frequencies --   -327.3378               191.7635               191.7695
 Red. masses --     12.1057                 4.1583                 4.1584
 Frc consts  --      0.7642                 0.0901                 0.0901
 IR Inten    --   1250.6900                22.2110                22.2103
 Raman Activ --     45.6279                 0.0584                 0.0585

                      4                      5                      6
                      A                      A                      A
 Frequencies --    192.0550              1008.1013              1008.3209
 Red. masses --     34.4737                 1.0162                 1.0162
 Frc consts  --      0.7492                 0.6084                 0.6087
 IR Inten    --     21.1946                 0.0037                 0.0036
 Raman Activ --     12.5912                 7.2732                 7.2756

                      7                      8                      9
                      A                      A                      A
 Frequencies --   1193.4303              1547.6400              1548.0297
 Red. masses --      1.0427                 1.1012                 1.1012
 Frc consts  --      0.8750                 1.5540                 1.5547
 IR Inten    --    307.6803                 8.9418                 8.9335
 Raman Activ --      3.5199                 4.1408                 4.1518

                     10                     11                     12
                      A                      A                      A
 Frequencies --   3387.7703              3590.0525              3590.1559
 Red. masses --      1.0082                 1.1221                 1.1220
 Frc consts  --      6.8178                 8.5205                 8.5206
 IR Inten    --      1.0539                 5.7804                 5.7556
 Raman Activ --    101.8095                23.3363                23.3692

 - Thermochemistry -
 -------------------
 Temperature   298.150 Kelvin.  Pressure   1.00000 Atm.
 Atom     1 has atomic number  6 and mass  12.00000

 Molecular mass:   128.91066 amu.
 Principal axes and moments of inertia in atomic units:
                           1         2         3
     Eigenvalues --    12.114142156.844352156.84855
           X            1.00000   0.00000   0.00000
           Y           -0.00000   1.00000   0.00000
           Z           -0.00000  -0.00000   1.00000
 This molecule is an asymmetric top.
 Rotational symmetry number  1.
 Rotational temperatures (Kelvin)      7.14982     0.04016     0.04016
 Rotational constants (GHZ):         148.97812     0.83675     0.83675
    1 imaginary frequencies ignored.
 Zero-point vibrational energy     104368.7 (Joules/Mol)
                                   24.94472 (Kcal/Mol)
 Warning -- explicit consideration of   3 degrees of freedom as
           vibrations may cause significant error
 Vibrational temperatures:    275.90   275.91   276.32  1450.43  1450.75
          (Kelvin)           1717.08  2226.71  2227.27  4874.25  5165.28
                             5165.43

 Zero-point correction=                           0.039752 (Hartree/Particle)
 Thermal correction to Energy=                    0.044402
 Thermal correction to Enthalpy=                  0.045346
 Thermal correction to Gibbs Free Energy=         0.010717
 Sum of electronic and zero-point Energies=          -3056.765552
 Sum of electronic and thermal Energies=             -3056.760902
 Sum of electronic and thermal Enthalpies=           -3056.759957
 Sum of electronic and thermal Free Energies=        -3056.794586

                     E (Thermal)             CV                S
                      KCal/Mol        Cal/Mol-Kelvin    Cal/Mol-Kelvin
 Total                   27.863             12.587             72.883
 Electronic               0.000              0.000              0.000
 Translational            0.889              2.981             40.475
 Rotational               0.889              2.981             25.536
 Vibrational             26.085              6.626              6.872
 Vibration     1          0.634              1.851              2.211
 Vibration     2          0.634              1.851              2.211
 Vibration     3          0.634              1.851              2.208

 Optimization completed.
    -- Stationary point found.
 Normal termination of Gaussian 16 at Wed Aug 28 11:22:52 2024.
