 ----------------------------------------------------------------------
 #p ub3lyp/6-311+G* scf=(novaracc,maxcycles=512) int=(acc2e=12,grid=ult
 rafine) geom=connectivity opt freq
 ----------------------------------------------------------------------

 -------------------
 Title Card Required
 -------------------
 Symbolic Z-matrix:
 Charge = -1 Multiplicity = 1

 SCF Done:  E(UB3LYP) =  -156.501242004     A.U. after   16 cycles
 SCF Done:  E(UB3LYP) =  -156.498263676     A.U. after   14 cycles
 SCF Done:  E(UB3LYP) =  -156.500886067     A.U. after   13 cycles
 SCF Done:  E(UB3LYP) =  -156.501249068     A.U. after    7 cycles
 SCF Done:  E(UB3LYP) =  -156.501254825     A.U. after   12 cycles
 SCF Done:  E(UB3LYP) =  -156.501211218     A.U. after   12 cycles
 SCF Done:  E(UB3LYP) =  -156.501187832     A.U. after   12 cycles
 SCF Done:  E(UB3LYP) =  -156.501136310     A.U. after   13 cycles
 SCF Done:  E(UB3LYP) =  -156.501260228     A.U. after    6 cycles
 SCF Done:  E(UB3LYP) =  -156.501271930     A.U. after   12 cycles
 Optimization completed.
    -- Stationary point found.

 1\1\GINC-NODE05\FOpt\UB3LYP\6-311+G(d)\B6Li1(1-)\HHARB\19-Jun-2019\0\\
 #p ub3lyp/6-311+G* scf=(novaracc,maxcycles=512) int=(acc2e=12,grid=ult
 rafine) geom=connectivity opt freq\\Title Card Required\\-1,1\B,-2.021
 3513664,-0.000125254,0.0403075048\B,-0.8314503419,0.892823452,-0.26425
 89319\B,0.8308862477,0.8932462912,-0.2661607487\B,2.0207586292,0.00019
 42278,0.0377135867\B,-0.8315965184,-0.8929358571,-0.2655934901\B,0.830
 926434,-0.892752702,-0.2669616855\Li,0.0039159159,-0.0008421579,1.6418
 477648\\Version=ES64L-GDVRevI.10+\State=1-A\HF=-156.5012728\S2=0.\S2-1

 Normal termination of Gaussian DV at Wed Jun 19 06:16:22 2019.

 ----------------------------------------------------------------------
 #P Geom=AllCheck Guess=TCheck SCRF=Check GenChk UB3LYP/6-311+G(d) Freq
 ----------------------------------------------------------------------

 Structure from the checkpoint file:  "1-1-oso.chk"
 -------------------
 Title Card Required
 -------------------
 Charge = -1 Multiplicity = 1

                           ! Non-Optimized Parameters !

 1\1\GINC-NODE05\Freq\UB3LYP\6-311+G(d)\B6Li1(1-)\HHARB\19-Jun-2019\0\\
 #P Geom=AllCheck Guess=TCheck SCRF=Check GenChk UB3LYP/6-311+G(d) Freq
 \\Title Card Required\\-1,1\B,-2.0213513664,-0.000125254,0.0403075048\
 B,-0.8314503419,0.892823452,-0.2642589319\B,0.8308862477,0.8932462912,
 -0.2661607487\B,2.0207586292,0.0001942278,0.0377135867\B,-0.8315965184
 ,-0.8929358571,-0.2655934901\B,0.830926434,-0.892752702,-0.2669616855\
 Li,0.0039159159,-0.0008421579,1.6418477648\\Version=ES64L-GDVRevI.10+\
 State=1-A\HF=-156.5012728\S2=0.\S2-1=0.\S2A=0.\RMSD=3.155e-09\RMSF=3.6

 Normal termination of Gaussian DV at Wed Jun 19 06:17:21 2019.

 ----------------------------------------------------------------------
 #p ub3lyp geom=allcheck guess=read chkbasis stable=opt scf=(novaracc,m
 axcycles=512) int=(acc2e=12,grid=ultrafine)
 ----------------------------------------------------------------------

 Structure from the checkpoint file:  "1-1-oso.chk"
 -------------------
 Title Card Required
 -------------------
 Charge = -1 Multiplicity = 1

 Normal termination of Gaussian DV at Wed Jun 19 06:19:20 2019.

 ----------------------------------------------------------------------
 #p ub3lyp geom=allcheck guess=read chkbasis opt freq scf=(novaracc,max
 cycles=512) int=(acc2e=12,grid=ultrafine)
 ----------------------------------------------------------------------

 Structure from the checkpoint file:  "1-1-oso.chk"
 -------------------
 Title Card Required
 -------------------
 Charge = -1 Multiplicity = 1

 SCF Done:  E(UB3LYP) =  -156.501254558     A.U. after   20 cycles
 SCF Done:  E(UB3LYP) =  -156.501358670     A.U. after   15 cycles
 SCF Done:  E(UB3LYP) =  -156.501353491     A.U. after   19 cycles
 SCF Done:  E(UB3LYP) =  -156.501371199     A.U. after   18 cycles
 SCF Done:  E(UB3LYP) =  -156.501262998     A.U. after   19 cycles
 SCF Done:  E(UB3LYP) =  -156.501373608     A.U. after   18 cycles
 SCF Done:  E(UB3LYP) =  -156.501375862     A.U. after   17 cycles
 SCF Done:  E(UB3LYP) =  -156.501375868     A.U. after   17 cycles
 Optimization completed.
    -- Stationary point found.
 Normal termination of Gaussian DV at Wed Jun 19 06:21:57 2019.

 Structure from the checkpoint file:  "1-1-oso.chk"
 -------------------
 Title Card Required
 -------------------
 Charge = -1 Multiplicity = 1

 SCF Done:  E(UB3LYP) =  -156.501375868     A.U. after    1 cycles

  Exact polarizability: 262.222   0.037 124.411  -0.008  -0.000 110.294
 Approx polarizability: 591.194   0.132 229.832   0.010  -0.003 170.932

                      1                      2                      3
                      A                      A                      A
 Frequencies --    164.4919               225.0555               257.4052
 Red. masses --      7.9653                10.7361                 8.2954
 Frc consts  --      0.1270                 0.3204                 0.3238
 IR Inten    --     18.8723                22.3647                14.8248

                      4                      5                      6
                      A                      A                      A
 Frequencies --    267.5625               467.3337               500.8765
 Red. masses --     11.0092                10.4107                 7.4825
 Frc consts  --      0.4644                 1.3396                 1.1060
 IR Inten    --      0.0010                 0.4321                76.6664

                      7                      8                      9
                      A                      A                      A
 Frequencies --    502.3103               624.6039               642.5617
 Red. masses --     10.8769                11.0091                11.0017
 Frc consts  --      1.6170                 2.5305                 2.6763
 IR Inten    --      1.9800                 1.0882                 0.4354

                     10                     11                     12
                      A                      A                      A
 Frequencies --    683.7934               790.7635              1091.1117
 Red. masses --     11.0078                10.9520                11.0093
 Frc consts  --      3.0325                 4.0350                 7.7223
 IR Inten    --     57.0920                 0.1495                 0.0000

                     13                     14                     15
                      A                      A                      A
 Frequencies --   1188.8037              1240.9864              1279.7276
 Red. masses --     11.0058                11.0093                11.0072
 Frc consts  --      9.1642                 9.9895                10.6209
 IR Inten    --     11.5789               264.4200                 0.0076

 - Thermochemistry -
 -------------------
 Temperature   298.150 Kelvin.  Pressure   1.00000 Atm.
 Atom     1 has atomic number  5 and mass  11.00931

 Molecular mass:    73.07184 amu.
 Principal axes and moments of inertia in atomic units:
                           1         2         3
     Eigenvalues --   203.98533 509.06834 555.46276
           X            1.00000  -0.00000  -0.00001
           Y            0.00000   1.00000  -0.00001
           Z            0.00001   0.00001   1.00000
 This molecule is an asymmetric top.
 Rotational symmetry number  1.
 Rotational temperatures (Kelvin)      0.42461     0.17014     0.15593
 Rotational constants (GHZ):           8.84741     3.54518     3.24908
 Zero-point vibrational energy      59379.0 (Joules/Mol)
                                   14.19191 (Kcal/Mol)
 Warning -- explicit consideration of   7 degrees of freedom as
           vibrations may cause significant error
 Vibrational temperatures:    236.67   323.80   370.35   384.96   672.39
          (Kelvin)            720.65   722.71   898.67   924.50   983.83
                             1137.73  1569.87  1710.42  1785.50  1841.24

 Zero-point correction=                           0.022616 (Hartree/Particle)
 Thermal correction to Energy=                    0.028779
 Thermal correction to Enthalpy=                  0.029723
 Thermal correction to Gibbs Free Energy=        -0.006200
 Sum of electronic and zero-point Energies=           -156.478760
 Sum of electronic and thermal Energies=              -156.472597
 Sum of electronic and thermal Enthalpies=            -156.471653
 Sum of electronic and thermal Free Energies=         -156.507576

                     E (Thermal)             CV                S
                      KCal/Mol        Cal/Mol-Kelvin    Cal/Mol-Kelvin
 Total                   18.059             21.237             75.607
 Electronic               0.000              0.000              0.000
 Translational            0.889              2.981             38.783
 Rotational               0.889              2.981             25.559
 Vibrational             16.281             15.275             11.265
 Vibration     1          0.623              1.886              2.497
 Vibration     2          0.650              1.803              1.918
 Vibration     3          0.667              1.750              1.679
 Vibration     4          0.673              1.733              1.612
 Vibration     5          0.825              1.323              0.745
 Vibration     6          0.856              1.248              0.656
 Vibration     7          0.858              1.245              0.652

                           ! Non-Optimized Parameters !
 Normal termination of Gaussian DV at Wed Jun 19 06:22:59 2019.

 Structure from the checkpoint file:  "1-1-oso-stable.chk"
 -------------------
 Title Card Required
 -------------------
 Charge = -1 Multiplicity = 1

                         Standard orientation:
 ---------------------------------------------------------------------
 Center     Atomic      Atomic             Coordinates (Angstroms)
 Number     Number       Type             X           Y           Z
 ---------------------------------------------------------------------
      1          5           0       -2.024279   -0.000357    0.038971
      2          5           0       -0.829806    0.892367   -0.265662
      3          5           0        0.828837    0.892007   -0.266107
      4          5           0        2.023706    0.000374    0.038779
      5          5           0       -0.829139   -0.892297   -0.264980
      6          5           0        0.829544   -0.892241   -0.266470
      7          3           0        0.001893    0.000244    1.642446
 ---------------------------------------------------------------------

 SCF Done:  E(UB3LYP) =  -156.501375868     A.U. after    1 cycles

 The electronic state is 1-A.
 Alpha  occ. eigenvalues --   -6.56118  -6.56095  -6.56040  -6.56018  -6.53920
 Alpha  occ. eigenvalues --   -6.53584  -1.86247  -0.47791  -0.38073  -0.23893
 Alpha  occ. eigenvalues --   -0.23043  -0.12809  -0.11974  -0.09231  -0.07061
 Alpha  occ. eigenvalues --   -0.04529  -0.02837
 Alpha virt. eigenvalues --    0.06074   0.07145   0.07202   0.07368   0.07427
 Alpha virt. eigenvalues --    0.08277   0.08660   0.12698   0.12911   0.13124
 Alpha virt. eigenvalues --    0.14450   0.14631   0.15209   0.15322   0.15515

  Beta  occ. eigenvalues --   -6.56118  -6.56095  -6.56040  -6.56019  -6.53925
  Beta  occ. eigenvalues --   -6.53579  -1.86247  -0.47790  -0.38073  -0.23893
  Beta  occ. eigenvalues --   -0.23044  -0.12809  -0.11974  -0.09230  -0.07061
  Beta  occ. eigenvalues --   -0.04530  -0.02838
  Beta virt. eigenvalues --    0.06074   0.07144   0.07201   0.07368   0.07427
  Beta virt. eigenvalues --    0.08277   0.08660   0.12698   0.12912   0.13125
  Beta virt. eigenvalues --    0.14450   0.14631   0.15210   0.15322   0.15514

 Mulliken charges and spin densities:
               1          2
     1  B   -0.391129  -0.309352
     2  B   -0.044163   0.055575
     3  B   -0.043983  -0.055479
     4  B   -0.390216   0.308921
     5  B   -0.043289   0.055688
     6  B   -0.044944  -0.055367
     7  Li  -0.042275   0.000014
 Sum of Mulliken charges =  -1.00000  -0.00000

 Dipole moment (field-independent basis, Debye):
    X=              0.0051    Y=              0.0005    Z=              3.7934  Tot=              3.7934
 Quadrupole moment (field-independent basis, Debye-Ang):
   XX=            -76.6897   YY=            -51.1753   ZZ=            -37.4866
   XY=             -0.0046   XZ=              0.0096   YZ=              0.0017

 Normal termination of Gaussian DV at Wed Jun 19 06:23:50 2019.
