                         Program Version 5.0.3 -  RELEASE  -
|  1> ! wB97X-D3   def2-SVP def2-SVP/C def2/J  def2/JK   CPCM(Water) opt freq
|  2> %pal nprocs 32
|  3> end
|  4> %maxcore 20000
|  5> %scf
|  6> MaxIter 100
|  7> end
|  8> %geom
|  9> MaxIter 100
| 10> end
| 11> %output printlevel small
| 12> print[P_Hirshfeld] 1
| 13> print[P_Loewdin] 1
| 14> print[P_Mulliken] 1
| 15> print[P_NatPop] 1
| 16>  end
| 17> *xyz 1 1
| 18> C   4.086772 2.931262 0.503994
| 19> C   4.403352 1.828154 -0.169412
| 20> C   3.60337 0.598144 -0.141799
| 21> C   4.227652 -0.661889 -0.130019
| 22> C   3.458198 -1.790507 -0.035795
| 23> C   2.057736 -1.68133 0.020525
| 24> C   1.183887 -2.804634 0.117346
| 25> C   -0.15871 -2.63608 0.144033
| 26> C   -0.73778 -1.332606 0.06416
| 27> C   -2.12695 -1.114794 0.070181
| 28> C   -2.645415 0.155228 -0.019751
| 29> C   -4.132223 0.471842 -0.010433
| 30> C   -4.976994 -0.798669 0.061897
| 31> C   -4.445953 1.341862 1.215134
| 32> C   -4.499656 1.228897 -1.293891
| 33> C   -1.707808 1.2035 -0.119311
| 34> N   -0.403278 1.040223 -0.126973
| 35> C   0.094046 -0.212677 -0.031608
| 36> C   1.518796 -0.387883 -0.037648
| 37> N   2.287301 0.713551 -0.11251
| 38> H   3.236032 2.974658 1.175922
| 39> H   4.711966 3.811454 0.465427
| 40> H   5.324634 1.796015 -0.740456
| 41> H   5.306113 -0.72666 -0.171877
| 42> H   3.922009 -2.768309 -0.005196
| 43> H   1.612328 -3.796992 0.169792
| 44> H   -0.814963 -3.493233 0.220464
| 45> H   -2.779409 -1.974889 0.145022
| 46> H   -4.792973 -1.369224 0.974101
| 47> H   -6.034519 -0.535441 0.061402
| 48> H   -4.811303 -1.454896 -0.794558
| 49> H   -5.51197 1.56893 1.249527
| 50> H   -3.916605 2.295635 1.195147
| 51> H   -4.183875 0.832587 2.143178
| 52> H   -5.568833 1.442578 -1.30642
| 53> H   -3.984824 2.186701 -1.377716
| 54> H   -4.267466 0.643113 -2.183871
| 55> H   -2.055678 2.226842 -0.196801
| 56> Li   1.133004 2.261111 -0.328994
| 57> *
| 58>
| 59>                          ****END OF INPUT****
 Total Charge           Charge          ....    1
 Multiplicity           Mult            ....    1
 Number of Electrons    NEL             ....  142
Dispersion correction           -0.016755552
FINAL SINGLE POINT ENERGY      -812.955013079670
Dispersion correction            ... done
Dispersion correction           -0.016705485
FINAL SINGLE POINT ENERGY      -812.957941067182
Dispersion correction            ... done
Dispersion correction           -0.016694758
FINAL SINGLE POINT ENERGY      -812.958165291034
Dispersion correction            ... done
FINAL SINGLE POINT ENERGY      -812.958371659305
FINAL SINGLE POINT ENERGY      -812.958449946073
FINAL SINGLE POINT ENERGY      -812.958496601451
FINAL SINGLE POINT ENERGY      -812.958514910744
Dispersion correction           -0.016699133
FINAL SINGLE POINT ENERGY      -812.958521298903
Dispersion correction            ... done
Dispersion correction           -0.016701739
FINAL SINGLE POINT ENERGY      -812.958522474184
Dispersion correction            ... done
                    ***********************HURRAY********************

CARTESIAN COORDINATES (ANGSTROEM)
---------------------------------
  C      4.118924    2.970894    0.445134
  C      4.456227    1.824119   -0.151716
  C      3.627137    0.598669   -0.125902
  C      4.251445   -0.671480   -0.114088
  C      3.476757   -1.804164   -0.025563
  C      2.068653   -1.687165    0.026513
  C      1.188389   -2.822212    0.118911
  C     -0.159740   -2.656884    0.144430
  C     -0.743154   -1.341944    0.067634
  C     -2.141250   -1.125314    0.072361
  C     -2.660679    0.152036   -0.014624
  C     -4.157559    0.472375   -0.007826
  C     -5.003873   -0.804779    0.035406
  C     -4.477567    1.321300    1.236803
  C     -4.514737    1.256725   -1.283727
  C     -1.720192    1.209018   -0.110122
  N     -0.412097    1.040927   -0.115039
  C      0.090341   -0.215060   -0.023752
  C      1.531286   -0.386478   -0.029987
  N      2.305498    0.721341   -0.100722
  H      3.202403    3.070352    1.037950
  H      4.771915    3.845808    0.400644
  H      5.420767    1.737224   -0.663328
  H      5.340483   -0.734813   -0.158199
  H      3.937520   -2.794969    0.003283
  H      1.631677   -3.819702    0.168750
  H     -0.827353   -3.518990    0.217085
  H     -2.793959   -1.997706    0.144609
  H     -4.812326   -1.393195    0.945995
  H     -6.071126   -0.536925    0.031247
  H     -4.816078   -1.448669   -0.837817
  H     -5.551104    1.565331    1.261039
  H     -3.919485    2.270014    1.243623
  H     -4.230042    0.773330    2.159290
  H     -5.591387    1.487014   -1.292960
  H     -3.971045    2.210970   -1.349849
  H     -4.283434    0.667823   -2.184992
  H     -2.067847    2.244271   -0.188081
  Li     1.116624    2.332487   -0.320200

 Multiplicity           Mult            ....    1
 Number of Electrons    NEL             ....  142
 Basis Dimension        Dim             ....  379

ORBITAL ENERGIES
----------------

  NO   OCC          E(Eh)            E(eV)
   0   2.0000     -14.469675      -393.7399
   1   2.0000     -14.468398      -393.7051
   2   2.0000     -10.367038      -282.1015
   3   2.0000     -10.359980      -281.9094
   4   2.0000     -10.355479      -281.7869
   5   2.0000     -10.354861      -281.7701
   6   2.0000     -10.332682      -281.1666
   7   2.0000     -10.330473      -281.1065
   8   2.0000     -10.329824      -281.0888
   9   2.0000     -10.326553      -280.9998
  10   2.0000     -10.323311      -280.9116
  11   2.0000     -10.319699      -280.8133
  12   2.0000     -10.317764      -280.7606
  13   2.0000     -10.317041      -280.7409
  14   2.0000     -10.316280      -280.7203
  15   2.0000     -10.315745      -280.7057
  16   2.0000     -10.312912      -280.6286
  17   2.0000     -10.283687      -279.8333
  18   2.0000     -10.283514      -279.8286
  19   2.0000     -10.281796      -279.7819
  20   2.0000      -2.096311       -57.0435
  21   2.0000      -1.104298       -30.0495
  22   2.0000      -1.079764       -29.3819
  23   2.0000      -0.984588       -26.7920
  24   2.0000      -0.964327       -26.2407
  25   2.0000      -0.939820       -25.5738
  26   2.0000      -0.929112       -25.2824
  27   2.0000      -0.897340       -24.4179
  28   2.0000      -0.874392       -23.7934
  29   2.0000      -0.858933       -23.3728
  30   2.0000      -0.801631       -21.8135
  31   2.0000      -0.793401       -21.5895
  32   2.0000      -0.785739       -21.3810
  33   2.0000      -0.771447       -20.9921
  34   2.0000      -0.763134       -20.7659
  35   2.0000      -0.732898       -19.9432
  36   2.0000      -0.696682       -18.9577
  37   2.0000      -0.687539       -18.7089
  38   2.0000      -0.659408       -17.9434
  39   2.0000      -0.647040       -17.6069
  40   2.0000      -0.636479       -17.3195
  41   2.0000      -0.603101       -16.4112
  42   2.0000      -0.596295       -16.2260
  43   2.0000      -0.593448       -16.1485
  44   2.0000      -0.572842       -15.5878
  45   2.0000      -0.564670       -15.3655
  46   2.0000      -0.558577       -15.1996
  47   2.0000      -0.545852       -14.8534
  48   2.0000      -0.542535       -14.7631
  49   2.0000      -0.531072       -14.4512
  50   2.0000      -0.528141       -14.3714
  51   2.0000      -0.524970       -14.2852
  52   2.0000      -0.518554       -14.1106
  53   2.0000      -0.514398       -13.9975
  54   2.0000      -0.494402       -13.4534
  55   2.0000      -0.486638       -13.2421
  56   2.0000      -0.484162       -13.1747
  57   2.0000      -0.473962       -12.8972
  58   2.0000      -0.463597       -12.6151
  59   2.0000      -0.462895       -12.5960
  60   2.0000      -0.458575       -12.4785
  61   2.0000      -0.443007       -12.0548
  62   2.0000      -0.433226       -11.7887
  63   2.0000      -0.422395       -11.4939
  64   2.0000      -0.417578       -11.3629
  65   2.0000      -0.411926       -11.2091
  66   2.0000      -0.410844       -11.1796
  67   2.0000      -0.394367       -10.7313
  68   2.0000      -0.379802       -10.3349
  69   2.0000      -0.338272        -9.2049
  70   2.0000      -0.326234        -8.8773
  71   0.0000      -0.016066        -0.4372
  72   0.0000      -0.008210        -0.2234
  73   0.0000       0.029161         0.7935
  74   0.0000       0.043631         1.1872
  75   0.0000       0.075699         2.0599

MULLIKEN ATOMIC CHARGES
-----------------------
   0 C :   -0.091905
   1 C :   -0.050258
   2 C :    0.054057
   3 C :   -0.027151
   4 C :    0.055727
   5 C :   -0.064540
   6 C :   -0.002980
   7 C :   -0.011953
   8 C :   -0.030806
   9 C :    0.008173
  10 C :    0.004265
  11 C :   -0.353180
  12 C :    0.033132
  13 C :    0.017553
  14 C :    0.012558
  15 C :    0.072535
  16 N :   -0.292597
  17 C :    0.089828
  18 C :    0.109020
  19 N :   -0.288028
  20 H :    0.088422
  21 H :    0.091175
  22 H :    0.076417
  23 H :    0.062409
  24 H :    0.062732
  25 H :    0.048210
  26 H :    0.049477
  27 H :    0.046107
  28 H :    0.045862
  29 H :    0.043852
  30 H :    0.044429
  31 H :    0.044880
  32 H :    0.042522
  33 H :    0.042587
  34 H :    0.044429
  35 H :    0.043456
  36 H :    0.043688
  37 H :    0.074986
  38 Li:    0.760910
Sum of atomic charges:    1.0000000

LOEWDIN ATOMIC CHARGES
----------------------
   0 C :   -0.007711
   1 C :   -0.034193
   2 C :    0.050449
   3 C :   -0.027431
   4 C :    0.045292
   5 C :   -0.037228
   6 C :   -0.008283
   7 C :   -0.009247
   8 C :   -0.030155
   9 C :    0.032871
  10 C :   -0.021811
  11 C :   -0.056107
  12 C :   -0.050206
  13 C :   -0.044301
  14 C :   -0.044975
  15 C :    0.078691
  16 N :   -0.056924
  17 C :    0.021955
  18 C :    0.034836
  19 N :   -0.063468
  20 H :    0.052349
  21 H :    0.048834
  22 H :    0.054263
  23 H :    0.056511
  24 H :    0.058780
  25 H :    0.052642
  26 H :    0.052234
  27 H :    0.052422
  28 H :    0.029926
  29 H :    0.033952
  30 H :    0.030067
  31 H :    0.032232
  32 H :    0.028511
  33 H :    0.030353
  34 H :    0.032417
  35 H :    0.028324
  36 H :    0.030571
  37 H :    0.045177
  38 Li:    0.478381

  Mayer bond orders larger than 0.100000
B(  0-C ,  1-C ) :   1.9436 B(  0-C , 20-H ) :   0.9580 B(  0-C , 21-H ) :   0.9529
B(  1-C ,  2-C ) :   1.0244 B(  1-C , 22-H ) :   0.9594 B(  2-C ,  3-C ) :   1.2726
B(  2-C , 19-N ) :   1.4870 B(  3-C ,  4-C ) :   1.5010 B(  3-C , 23-H ) :   0.9801
B(  4-C ,  5-C ) :   1.2762 B(  4-C , 24-H ) :   0.9826 B(  5-C ,  6-C ) :   1.1303
B(  5-C , 18-C ) :   1.3299 B(  6-C ,  7-C ) :   1.5924 B(  6-C , 25-H ) :   1.0020
B(  7-C ,  8-C ) :   1.1290 B(  7-C , 26-H ) :   1.0014 B(  8-C ,  9-C ) :   1.2505
B(  8-C , 17-C ) :   1.3479 B(  9-C , 10-C ) :   1.5335 B(  9-C , 27-H ) :   0.9803
B( 10-C , 11-C ) :   0.9040 B( 10-C , 15-C ) :   1.2744 B( 11-C , 12-C ) :   1.0794
B( 11-C , 13-C ) :   1.0233 B( 11-C , 14-C ) :   1.0257 B( 12-C , 28-H ) :   0.9547
B( 12-C , 29-H ) :   0.9655 B( 12-C , 30-H ) :   0.9573 B( 13-C , 31-H ) :   0.9708
B( 13-C , 32-H ) :   0.9685 B( 13-C , 33-H ) :   0.9693 B( 14-C , 34-H ) :   0.9704
B( 14-C , 35-H ) :   0.9677 B( 14-C , 36-H ) :   0.9705 B( 15-C , 16-N ) :   1.5270
B( 15-C , 37-H ) :   0.9786 B( 16-N , 17-C ) :   1.3097 B( 16-N , 38-Li) :   0.2000
B( 17-C , 18-C ) :   1.1426 B( 18-C , 19-N ) :   1.3188 B( 19-N , 38-Li) :   0.1964

Dispersion correction           -0.016703259
FINAL SINGLE POINT ENERGY      -812.958522210646

DIPOLE MOMENT
-------------
                                X             Y             Z
Electronic contribution:     25.61690       0.36108      -1.53828
Nuclear contribution   :    -24.09527       1.35486       1.23188
                        -----------------------------------------
Total Dipole Moment    :      1.52162       1.71594      -0.30640
                        -----------------------------------------
Magnitude (a.u.)       :      2.31380
Magnitude (Debye)      :      5.88121

Dispersion correction in the Hessian             ... done   (      0.8 sec)

VIBRATIONAL FREQUENCIES
-----------------------

Scaling factor for frequencies =  1.000000000  (already applied!)

   0:         0.00 cm**-1
   1:         0.00 cm**-1
   2:         0.00 cm**-1
   3:         0.00 cm**-1
   4:         0.00 cm**-1
   5:         0.00 cm**-1
   6:        37.82 cm**-1
   7:        50.95 cm**-1
   8:        67.84 cm**-1
   9:       104.20 cm**-1
  10:       113.61 cm**-1
  11:       130.95 cm**-1
  12:       167.49 cm**-1
  13:       174.39 cm**-1
  14:       190.59 cm**-1
  15:       240.89 cm**-1
  16:       251.37 cm**-1
  17:       261.11 cm**-1
  18:       274.82 cm**-1
  19:       290.28 cm**-1
  20:       303.65 cm**-1
  21:       341.37 cm**-1
  22:       346.54 cm**-1
  23:       364.19 cm**-1
  24:       377.20 cm**-1
  25:       398.52 cm**-1
  26:       420.45 cm**-1
  27:       425.01 cm**-1
  28:       442.81 cm**-1
  29:       458.42 cm**-1
  30:       473.58 cm**-1
  31:       491.52 cm**-1
  32:       499.70 cm**-1
  33:       545.57 cm**-1
  34:       554.51 cm**-1
  35:       587.36 cm**-1
  36:       592.24 cm**-1
  37:       611.42 cm**-1
  38:       665.78 cm**-1
  39:       697.12 cm**-1
  40:       709.57 cm**-1
  41:       729.38 cm**-1
  42:       772.01 cm**-1
  43:       792.45 cm**-1
  44:       823.96 cm**-1
  45:       850.70 cm**-1
  46:       869.67 cm**-1
  47:       890.41 cm**-1
  48:       905.09 cm**-1
  49:       933.94 cm**-1
  50:       948.98 cm**-1
  51:       955.92 cm**-1
  52:       958.33 cm**-1
  53:       967.47 cm**-1
  54:       979.65 cm**-1
  55:       988.56 cm**-1
  56:       996.81 cm**-1
  57:      1027.40 cm**-1
  58:      1030.68 cm**-1
  59:      1039.90 cm**-1
  60:      1040.60 cm**-1
  61:      1045.80 cm**-1
  62:      1046.49 cm**-1
  63:      1114.19 cm**-1
  64:      1133.44 cm**-1
  65:      1158.26 cm**-1
  66:      1169.82 cm**-1
  67:      1216.02 cm**-1
  68:      1234.92 cm**-1
  69:      1246.54 cm**-1
  70:      1247.08 cm**-1
  71:      1249.00 cm**-1
  72:      1272.29 cm**-1
  73:      1302.60 cm**-1
  74:      1306.42 cm**-1
  75:      1345.59 cm**-1
  76:      1386.19 cm**-1
  77:      1387.49 cm**-1
  78:      1389.96 cm**-1
  79:      1398.31 cm**-1
  80:      1408.79 cm**-1
  81:      1425.23 cm**-1
  82:      1427.28 cm**-1
  83:      1451.84 cm**-1
  84:      1453.89 cm**-1
  85:      1456.01 cm**-1
  86:      1464.40 cm**-1
  87:      1471.20 cm**-1
  88:      1473.03 cm**-1
  89:      1480.21 cm**-1
  90:      1488.32 cm**-1
  91:      1522.86 cm**-1
  92:      1559.80 cm**-1
  93:      1591.95 cm**-1
  94:      1669.47 cm**-1
  95:      1697.80 cm**-1
  96:      1710.62 cm**-1
  97:      1721.36 cm**-1
  98:      1741.04 cm**-1
  99:      3051.81 cm**-1
 100:      3053.11 cm**-1
 101:      3057.27 cm**-1
 102:      3152.22 cm**-1
 103:      3152.94 cm**-1
 104:      3153.42 cm**-1
 105:      3155.26 cm**-1
 106:      3156.45 cm**-1
 107:      3159.39 cm**-1
 108:      3161.00 cm**-1
 109:      3200.86 cm**-1
 110:      3205.28 cm**-1
 111:      3216.51 cm**-1
 112:      3220.85 cm**-1
 113:      3231.49 cm**-1
 114:      3233.40 cm**-1
 115:      3237.79 cm**-1
 116:      3270.80 cm**-1

IR SPECTRUM
-----------

 Mode   freq       eps      Int      T**2         TX        TY        TZ
       cm**-1   L/(mol*cm) km/mol    a.u.
----------------------------------------------------------------------------
  6:     37.82   0.000034    0.17  0.000281  ( 0.001085  0.003952  0.016245)
  7:     50.95   0.000093    0.47  0.000569  (-0.000329 -0.004511 -0.023413)
  8:     67.84   0.000040    0.20  0.000185  ( 0.004434  0.007509 -0.010415)
  9:    104.20   0.000520    2.63  0.001557  (-0.001604  0.001493  0.039404)
 10:    113.61   0.000706    3.57  0.001939  ( 0.006075  0.011294  0.042127)
 11:    130.95   0.002416   12.21  0.005757  ( 0.001807 -0.006123 -0.075604)
 12:    167.49   0.009960   50.33  0.018558  (-0.021823 -0.006757 -0.134298)
 13:    174.39   0.006482   32.76  0.011599  (-0.017184  0.015471  0.105186)
 14:    190.59   0.000516    2.61  0.000845  ( 0.018396 -0.001508 -0.022447)
 15:    240.89   0.000108    0.55  0.000140  (-0.001390  0.000598  0.011745)
 16:    251.37   0.000555    2.80  0.000688  (-0.021605  0.014791  0.001688)
 17:    261.11   0.000012    0.06  0.000014  ( 0.000222  0.003796 -0.000131)
 18:    274.82   0.000033    0.17  0.000037  ( 0.001851  0.001245  0.005673)
 19:    290.28   0.000636    3.22  0.000684  (-0.025899  0.001528  0.003291)
 20:    303.65   0.000236    1.19  0.000242  (-0.011880  0.009018  0.004433)
 21:    341.37   0.000087    0.44  0.000080  (-0.006969  0.003069  0.004657)
 22:    346.54   0.002602   13.15  0.002343  (-0.047582  0.004749 -0.007534)
 23:    364.19   0.000125    0.63  0.000107  (-0.005401  0.007779  0.004131)
 24:    377.20   0.011454   57.88  0.009476  (-0.097262  0.002743 -0.002890)
 25:    398.52   0.012368   62.50  0.009685  ( 0.037009  0.090053 -0.014330)
 26:    420.45   0.001160    5.86  0.000861  (-0.025588  0.011701 -0.008329)
 27:    425.01   0.005064   25.59  0.003718  ( 0.045651 -0.038825  0.011271)
 28:    442.81   0.003106   15.70  0.002189  ( 0.041136 -0.022190 -0.002123)
 29:    458.42   0.004761   24.06  0.003241  (-0.007795 -0.055856  0.007772)
 30:    473.58   0.004983   25.18  0.003284  ( 0.005151 -0.056347  0.009070)
 31:    491.52   0.001104    5.58  0.000701  ( 0.005179  0.024104 -0.009636)
 32:    499.70   0.003103   15.68  0.001938  (-0.022592 -0.037222 -0.006493)
 33:    545.57   0.000512    2.59  0.000293  (-0.002712 -0.008111  0.014816)
 34:    554.51   0.000113    0.57  0.000064  ( 0.003843  0.004041  0.005705)
 35:    587.36   0.001484    7.50  0.000788  ( 0.012709 -0.025024 -0.000813)
 36:    592.24   0.000061    0.31  0.000032  (-0.001303  0.003638 -0.004137)
 37:    611.42   0.001456    7.36  0.000743  ( 0.003023 -0.000164  0.027089)
 38:    665.78   0.000339    1.71  0.000159  ( 0.004203  0.001133  0.011834)
 39:    697.12   0.001749    8.84  0.000783  ( 0.027881 -0.002317 -0.000368)
 40:    709.57   0.007984   40.35  0.003511  (-0.059024 -0.000504 -0.005226)
 41:    729.38   0.004990   25.22  0.002135  ( 0.019344  0.001842 -0.041919)
 42:    772.01   0.005054   25.54  0.002043  ( 0.000325  0.045188  0.000882)
 43:    792.45   0.007021   35.48  0.002765  ( 0.015839  0.005072  0.049882)
 44:    823.96   0.003320   16.78  0.001257  ( 0.019040  0.029508 -0.004915)
 45:    850.70   0.000710    3.59  0.000260  ( 0.012875 -0.002299  0.009455)
 46:    869.67   0.001509    7.62  0.000541  (-0.018594  0.013852 -0.001946)
 47:    890.41   0.010674   53.94  0.003741  (-0.007648 -0.005854 -0.060401)
 48:    905.09   0.003565   18.02  0.001229  ( 0.000412 -0.000463 -0.035056)
 49:    933.94   0.002227   11.26  0.000744  (-0.007834 -0.025784 -0.004248)
 50:    948.98   0.000263    1.33  0.000087  ( 0.001246  0.000831  0.009183)
 51:    955.92   0.000552    2.79  0.000180  ( 0.008373  0.010380 -0.001517)
 52:    958.33   0.000137    0.69  0.000045  ( 0.000567 -0.000166 -0.006665)
 53:    967.47   0.005003   25.28  0.001614  (-0.002000 -0.002337 -0.040054)
 54:    979.65   0.004358   22.02  0.001388  (-0.032352 -0.017970 -0.004316)
 55:    988.56   0.013877   70.13  0.004381  (-0.031702  0.016563 -0.055688)
 56:    996.81   0.000203    1.02  0.000063  (-0.000874 -0.003260 -0.007212)
 57:   1027.40   0.002153   10.88  0.000654  (-0.011424 -0.004695 -0.022393)
 58:   1030.68   0.000605    3.06  0.000183  (-0.007450 -0.001199 -0.011238)
 59:   1039.90   0.000545    2.75  0.000164  ( 0.012581 -0.002285  0.000009)
 60:   1040.60   0.000607    3.07  0.000182  (-0.012485  0.004525 -0.002369)
 61:   1045.80   0.000063    0.32  0.000019  (-0.000558 -0.000639  0.004246)
 62:   1046.49   0.000723    3.65  0.000215  (-0.002061 -0.011523 -0.008856)
 63:   1114.19   0.001148    5.80  0.000321  ( 0.011986  0.013013  0.002908)
 64:   1133.44   0.005616   28.38  0.001546  (-0.018235  0.034801 -0.001616)
 65:   1158.26   0.001704    8.61  0.000459  ( 0.011341  0.018099 -0.001732)
 66:   1169.82   0.008429   42.59  0.002248  (-0.046606 -0.008627  0.001375)
 67:   1216.02   0.008844   44.69  0.002270  ( 0.040322 -0.025371 -0.000302)
 68:   1234.92   0.000928    4.69  0.000234  (-0.005780 -0.014092  0.001568)
 69:   1246.54   0.002069   10.46  0.000518  ( 0.015008  0.005516 -0.016195)
 70:   1247.08   0.007454   37.67  0.001865  ( 0.037043  0.021647  0.004953)
 71:   1249.00   0.001233    6.23  0.000308  ( 0.010325 -0.013668  0.003824)
 72:   1272.29   0.002189   11.06  0.000537  (-0.004749 -0.022644  0.001278)
 73:   1302.60   0.002524   12.76  0.000605  ( 0.024275  0.001201  0.003753)
 74:   1306.42   0.001110    5.61  0.000265  ( 0.015545 -0.000545 -0.004821)
 75:   1345.59   0.000788    3.98  0.000183  (-0.012585 -0.004013  0.002862)
 76:   1386.19   0.002007   10.15  0.000452  (-0.001340 -0.002737 -0.021039)
 77:   1387.49   0.002068   10.45  0.000465  ( 0.006028  0.020699  0.000450)
 78:   1389.96   0.001489    7.52  0.000334  ( 0.009295 -0.015734 -0.000586)
 79:   1398.31   0.003381   17.09  0.000755  ( 0.027291 -0.002780  0.001445)
 80:   1408.79   0.000072    0.36  0.000016  (-0.001564 -0.003638  0.000423)
 81:   1425.23   0.003102   15.68  0.000679  ( 0.006597 -0.022672 -0.011029)
 82:   1427.28   0.002262   11.43  0.000494  (-0.014418 -0.014921  0.007999)
 83:   1451.84   0.000127    0.64  0.000027  ( 0.004604  0.000997 -0.002247)
 84:   1453.89   0.000050    0.25  0.000011  ( 0.001312  0.001991 -0.002252)
 85:   1456.01   0.000786    3.97  0.000168  ( 0.012578  0.003015 -0.001056)
 86:   1464.40   0.007301   36.90  0.001556  ( 0.033879 -0.020129 -0.001723)
 87:   1471.20   0.003028   15.30  0.000642  ( 0.007201  0.013441 -0.020243)
 88:   1473.03   0.011881   60.04  0.002517  ( 0.025500  0.042512  0.007712)
 89:   1480.21   0.003550   17.94  0.000748  (-0.010269  0.025285  0.001884)
 90:   1488.32   0.010600   53.57  0.002223  ( 0.045277  0.013127 -0.000603)
 91:   1522.86   0.000094    0.47  0.000019  ( 0.002856  0.002334  0.002364)
 92:   1559.80   0.006859   34.66  0.001372  (-0.036630  0.000372 -0.005507)
 93:   1591.95   0.026513  133.99  0.005197  ( 0.003620 -0.071919  0.003444)
 94:   1669.47   0.029264  147.89  0.005470  (-0.068679 -0.027436 -0.000767)
 95:   1697.80   0.009932   50.19  0.001825  ( 0.009061  0.041751  0.000538)
 96:   1710.62   0.005944   30.04  0.001084  (-0.017866 -0.027477 -0.003186)
 97:   1721.36   0.001455    7.35  0.000264  (-0.006838  0.014729 -0.000276)
 98:   1741.04   0.002186   11.05  0.000392  ( 0.004023  0.019232 -0.002388)
 99:   3051.81   0.006894   34.84  0.000705  ( 0.001190  0.021027  0.016169)
100:   3053.11   0.006581   33.26  0.000673  ( 0.005649  0.013334 -0.021516)
101:   3057.27   0.004173   21.09  0.000426  ( 0.019045 -0.005098  0.006101)
102:   3152.22   0.001253    6.33  0.000124  ( 0.003486 -0.000505 -0.010566)
103:   3152.94   0.004797   24.24  0.000475  (-0.011769 -0.000027 -0.018337)
104:   3153.42   0.003179   16.06  0.000315  (-0.006024  0.003052  0.016400)
105:   3155.26   0.005473   27.66  0.000541  ( 0.007587  0.016845 -0.014142)
106:   3156.45   0.014845   75.02  0.001468  ( 0.033609 -0.018040 -0.003559)
107:   3159.39   0.007770   39.27  0.000768  (-0.021448 -0.016305 -0.006454)
108:   3161.00   0.001078    5.45  0.000106  ( 0.008494 -0.003995 -0.004280)
109:   3200.86   0.000481    2.43  0.000047  (-0.005264 -0.004351  0.000489)
110:   3205.28   0.001542    7.79  0.000150  (-0.008260  0.009049 -0.000264)
111:   3216.51   0.000093    0.47  0.000009  ( 0.002857  0.000900  0.000183)
112:   3220.85   0.000482    2.43  0.000047  (-0.003567  0.005825 -0.000009)
113:   3231.49   0.001117    5.64  0.000108  ( 0.001213  0.010300 -0.000530)
114:   3233.40   0.000108    0.55  0.000010  (-0.003088 -0.000929  0.000223)
115:   3237.79   0.000084    0.43  0.000008  (-0.002820  0.000080  0.000397)
116:   3270.80   0.000433    2.19  0.000041  ( 0.006228  0.000372 -0.001538)

--------------------------
THERMOCHEMISTRY AT 298.15K
--------------------------

Temperature         ... 298.15 K
Pressure            ... 1.00 atm
Total Mass          ... 269.30 AMU

Throughout the following assumptions are being made:
  (1) The electronic state is orbitally nondegenerate
  (2) There are no thermally accessible electronically excited states
  (3) Hindered rotations indicated by low frequency modes are not
      treated as such but are treated as vibrations and this may
      cause some error
  (4) All equations used are the standard statistical mechanics
      equations for an ideal gas
  (5) All vibrations are strictly harmonic

freq.      37.82  E(vib)   ...       0.54
freq.      50.95  E(vib)   ...       0.52
freq.      67.84  E(vib)   ...       0.50
freq.     104.20  E(vib)   ...       0.46
freq.     113.61  E(vib)   ...       0.44
freq.     130.95  E(vib)   ...       0.42
freq.     167.49  E(vib)   ...       0.38
freq.     174.39  E(vib)   ...       0.38
freq.     190.59  E(vib)   ...       0.36
freq.     240.89  E(vib)   ...       0.31
freq.     251.37  E(vib)   ...       0.30
freq.     261.11  E(vib)   ...       0.30
freq.     274.82  E(vib)   ...       0.28
freq.     290.28  E(vib)   ...       0.27
freq.     303.65  E(vib)   ...       0.26
freq.     341.37  E(vib)   ...       0.23
freq.     346.54  E(vib)   ...       0.23
freq.     364.19  E(vib)   ...       0.22
freq.     377.20  E(vib)   ...       0.21
freq.     398.52  E(vib)   ...       0.20
freq.     420.45  E(vib)   ...       0.18
freq.     425.01  E(vib)   ...       0.18
freq.     442.81  E(vib)   ...       0.17
freq.     458.42  E(vib)   ...       0.16
freq.     473.58  E(vib)   ...       0.15
freq.     491.52  E(vib)   ...       0.14
freq.     499.70  E(vib)   ...       0.14
freq.     545.57  E(vib)   ...       0.12
freq.     554.51  E(vib)   ...       0.12
freq.     587.36  E(vib)   ...       0.10
freq.     592.24  E(vib)   ...       0.10
freq.     611.42  E(vib)   ...       0.10
freq.     665.78  E(vib)   ...       0.08
freq.     697.12  E(vib)   ...       0.07
freq.     709.57  E(vib)   ...       0.07
freq.     729.38  E(vib)   ...       0.06
freq.     772.01  E(vib)   ...       0.05
freq.     792.45  E(vib)   ...       0.05
freq.     823.96  E(vib)   ...       0.05
freq.     850.70  E(vib)   ...       0.04
freq.     869.67  E(vib)   ...       0.04
freq.     890.41  E(vib)   ...       0.04
freq.     905.09  E(vib)   ...       0.03
freq.     933.94  E(vib)   ...       0.03
freq.     948.98  E(vib)   ...       0.03
freq.     955.92  E(vib)   ...       0.03
freq.     958.33  E(vib)   ...       0.03
freq.     967.47  E(vib)   ...       0.03
freq.     979.65  E(vib)   ...       0.03
freq.     988.56  E(vib)   ...       0.02
freq.     996.81  E(vib)   ...       0.02
freq.    1027.40  E(vib)   ...       0.02
freq.    1030.68  E(vib)   ...       0.02
freq.    1039.90  E(vib)   ...       0.02
freq.    1040.60  E(vib)   ...       0.02
freq.    1045.80  E(vib)   ...       0.02
freq.    1046.49  E(vib)   ...       0.02
freq.    1114.19  E(vib)   ...       0.01
freq.    1133.44  E(vib)   ...       0.01
freq.    1158.26  E(vib)   ...       0.01
freq.    1169.82  E(vib)   ...       0.01
freq.    1216.02  E(vib)   ...       0.01
freq.    1234.92  E(vib)   ...       0.01
freq.    1246.54  E(vib)   ...       0.01
freq.    1247.08  E(vib)   ...       0.01
freq.    1249.00  E(vib)   ...       0.01
freq.    1272.29  E(vib)   ...       0.01
freq.    1302.60  E(vib)   ...       0.01
freq.    1306.42  E(vib)   ...       0.01
freq.    1345.59  E(vib)   ...       0.01
freq.    1386.19  E(vib)   ...       0.00
freq.    1387.49  E(vib)   ...       0.00
freq.    1389.96  E(vib)   ...       0.00
freq.    1398.31  E(vib)   ...       0.00
freq.    1408.79  E(vib)   ...       0.00
freq.    1425.23  E(vib)   ...       0.00
freq.    1427.28  E(vib)   ...       0.00
freq.    1451.84  E(vib)   ...       0.00
freq.    1453.89  E(vib)   ...       0.00
freq.    1456.01  E(vib)   ...       0.00
freq.    1464.40  E(vib)   ...       0.00
freq.    1471.20  E(vib)   ...       0.00
freq.    1473.03  E(vib)   ...       0.00
freq.    1480.21  E(vib)   ...       0.00
freq.    1488.32  E(vib)   ...       0.00
freq.    1522.86  E(vib)   ...       0.00
freq.    1559.80  E(vib)   ...       0.00
freq.    1591.95  E(vib)   ...       0.00
freq.    1669.47  E(vib)   ...       0.00
freq.    1697.80  E(vib)   ...       0.00
freq.    1710.62  E(vib)   ...       0.00
freq.    1721.36  E(vib)   ...       0.00
freq.    1741.04  E(vib)   ...       0.00
freq.    3051.81  E(vib)   ...       0.00
freq.    3053.11  E(vib)   ...       0.00
freq.    3057.27  E(vib)   ...       0.00
freq.    3152.22  E(vib)   ...       0.00
freq.    3152.94  E(vib)   ...       0.00
freq.    3153.42  E(vib)   ...       0.00
freq.    3155.26  E(vib)   ...       0.00
freq.    3156.45  E(vib)   ...       0.00
freq.    3159.39  E(vib)   ...       0.00
freq.    3161.00  E(vib)   ...       0.00
freq.    3200.86  E(vib)   ...       0.00
freq.    3205.28  E(vib)   ...       0.00
freq.    3216.51  E(vib)   ...       0.00
freq.    3220.85  E(vib)   ...       0.00
freq.    3231.49  E(vib)   ...       0.00
freq.    3233.40  E(vib)   ...       0.00
freq.    3237.79  E(vib)   ...       0.00
freq.    3270.80  E(vib)   ...       0.00

------------
INNER ENERGY
------------

The inner energy is: U= E(el) + E(ZPE) + E(vib) + E(rot) + E(trans)
    E(el)   - is the total energy from the electronic structure calculation
              = E(kin-el) + E(nuc-el) + E(el-el) + E(nuc-nuc)
    E(ZPE)  - the the zero temperature vibrational energy from the frequency calculation
    E(vib)  - the the finite temperature correction to E(ZPE) due to population
              of excited vibrational states
    E(rot)  - is the rotational thermal energy
    E(trans)- is the translational thermal energy

Summary of contributions to the inner energy U:
Electronic energy                ...   -812.95852221 Eh
Zero point energy                ...      0.32144969 Eh     201.71 kcal/mol
Thermal vibrational correction   ...      0.01531306 Eh       9.61 kcal/mol
Thermal rotational correction    ...      0.00141627 Eh       0.89 kcal/mol
Thermal translational correction ...      0.00141627 Eh       0.89 kcal/mol
-----------------------------------------------------------------------
Total thermal energy                   -812.61892692 Eh

Summary of corrections to the electronic energy:
(perhaps to be used in another calculation)
Total thermal correction                  0.01814560 Eh      11.39 kcal/mol
Non-thermal (ZPE) correction              0.32144969 Eh     201.71 kcal/mol
-----------------------------------------------------------------------
Total correction                          0.33959530 Eh     213.10 kcal/mol

--------

Rotational constants in cm-1:     0.023028     0.006195     0.005065

                             ****ORCA TERMINATED NORMALLY****
TOTAL RUN TIME: 0 days 0 hours 36 minutes 12 seconds 568 msec
