   * xtb version 6.6.0 (conda-forge) compiled by 'runner@Mac-1676020848589.local' on 2023-02-10
          program call               : xtb input_molecule.xyz --gfnff --chrg 0 --opt

   ID    Z sym.   atoms
    1    6 C      1-6
    2    1 H      7-20

 * total energy  :    -2.8427289 Eh     change        0.0000000E+00 Eh
 * total energy  :    -2.8460500 Eh     change       -0.3321196E-02 Eh
 * total energy  :    -2.8469426 Eh     change       -0.8925502E-03 Eh
 * total energy  :    -2.8470038 Eh     change       -0.6125362E-04 Eh
 * total energy  :    -2.8470210 Eh     change       -0.1713828E-04 Eh
 * total energy  :    -2.8470213 Eh     change       -0.3203481E-06 Eh
   *** GEOMETRY OPTIMIZATION CONVERGED AFTER 6 ITERATIONS ***

 final structure:
================
20
 xtb: 6.6.0 (conda-forge)
C            3.19369090953993        0.24286851064416        0.10337344125414
C            1.88704865786344       -0.52723963008062       -0.00799617275089
C            0.65878236366992        0.38376682844314        0.02321590133910
C           -0.65877958556230       -0.38375094648227       -0.08831493549683
C           -1.88705422429156        0.52724946401829       -0.05710198047672
C           -3.19368890850217       -0.24288110652782       -0.16847495010635
H            3.30227485916432        0.95748044372029       -0.71531902461466
H            4.06405796422830       -0.41764071305915        0.08001511760991
H            3.23886267276018        0.81204275196714        1.03435065251252
H            1.87500405442951       -1.12062626867084       -0.93242321153742
H            1.81212275527885       -1.26485085463181        0.80264179908503
H            0.72593674942380        1.12052732670959       -0.78714475292990
H            0.66311414389221        0.97642571778189        0.94665877032968
H           -0.72593416398634       -1.12051285855706        0.72204431432318
H           -0.66311256693127       -0.97640947384810       -1.01175795672831
H           -1.87501469234670        1.12060746616109        0.86734255325638
H           -1.81213181303525        1.26483874318228       -0.86775913244977
H           -3.30227007300967       -0.95748451697764        0.65022484805553
H           -4.06405291953720        0.41763251994871       -0.14511600271377
H           -3.23885618304801       -0.81204340374126       -1.09945927796084

         :: total energy              -2.847021308131 Eh    ::
         :: gradient norm              0.000106783607 Eh/a0 ::
         :: repulsion energy           0.159099864686 Eh    ::

           -------------------------------------------------
          | TOTAL ENERGY               -2.847021308131 Eh   |
          | GRADIENT NORM               0.000106783607 Eh/α |
           -------------------------------------------------

 * finished run on 2025/03/24 at 07:38:24.293
